 written on  2Nov2020 at 16:10:58 
  -2.6988037638089994        0.0000000000000000        2.6988037638089994     
   0.0000000000000000        2.6988037638089994        2.6988037638089994     
  -2.6988037638089994        2.6988037638089994        0.0000000000000000     
           8
         279
    3    2    2    3    2    3    6    2    2    2    1    2    2    1    1
    2    2    1    1    1    2    2    1    1    1    1    2    6    2    2
    2    2    2    6    2    2    3    1    1    1    3    2    1    1    1
    1    2    3    1    1    1    1    1    3    1    1    1    1    1    1
    2    1    1    1    1    1    2    2    1    1    1    1    2    3    2
    3    2    1    2    2    1    1    1    1    2    2    1    1    1    1
    1    2    1    1    1    1    1    1    2    1    1    1    1    1    2
    1    1    1    1    1    1    2    1    1    1    2    2    2    3    2
    1    1    2    3    1    1    1    1    1    3    1    1    1    1    1
    1    2    1    1    1    1    1    2    1    1    1    1    1    1    3
    1    1    1    1    1    3    2    1    1    2    3    2    2    2    1
    1    1    2    1    1    1    1    1    1    2    1    1    1    1    1
    2    1    1    1    1    1    1    2    1    1    1    1    1    2    2
    1    1    1    1    2    2    1    2    3    2    3    2    1    1    1
    1    2    2    1    1    1    1    1    2    1    1    1    1    1    1
    3    1    1    1    1    1    3    2    1    1    1    1    2    3    1
    1    1    3    2    2    6    2    2    2    2    2    6    2    1    1
    1    1    2    2    1    1    1    2    2    1    1    2    2    1    2
    2    2    6    3    2    3    2    2    3

   -4    0    2
    1    1   -0.86671979E-03  0.73627309E-10
    2    1    0.47336373E-03 -0.97185679E-04
    3    1    0.34036967E-02 -0.32127943E-04
    4    1   -0.49852511E-02  0.13438988E-02
    5    1   -0.11810464E-02 -0.15111152E-03
    6    1    0.11040774E-02  0.55417948E-04
    7    1    0.32565238E-02 -0.38668040E-03
    8    1   -0.27736003E-02 -0.18690093E-03
    1    2    0.82304034E-03  0.16897698E-03
    2    2   -0.86617161E-03  0.74805058E-11
    3    2   -0.25762129E-03 -0.50362741E-04
    4    2   -0.35743151E-02  0.21766294E-03
    5    2   -0.37103005E-02 -0.12698342E-02
    6    2   -0.15011071E-02 -0.38752974E-03
    7    2    0.10643495E-01  0.89946140E-03
    8    2   -0.59440638E-02 -0.16436512E-02
    1    3    0.13488148E-02  0.12731298E-04
    2    3    0.34806319E-02 -0.68043044E-03
    3    3   -0.50742042E-02 -0.86449181E-11
    4    3    0.26908255E-02 -0.69820419E-03
    5    3   -0.41727314E-03 -0.57396825E-04
    6    3   -0.13464724E-02 -0.80332019E-04
    7    3    0.13409002E-02 -0.14639807E-03
    8    3    0.27341964E-02  0.21018781E-03
    1    4   -0.25454853E-02 -0.68619920E-03
    2    4   -0.21789860E-02 -0.13269283E-03
    3    4    0.12002864E-02  0.31144478E-03
    4    4   -0.86616963E-03  0.11920524E-09
    5    4    0.57592283E-04  0.23712084E-04
    6    4   -0.79926524E-03 -0.25908551E-03
    7    4    0.75068942E-04  0.10972021E-04
    8    4   -0.12757392E-02 -0.43782758E-03
    1    5    0.25449000E-02 -0.32561241E-03
    2    5    0.33554601E-02 -0.11483915E-02
    3    5   -0.83579047E-02  0.11496477E-02
    4    5   -0.95669970E-02  0.39389537E-02
    5    5   -0.86617427E-03  0.91994780E-11
    6    5   -0.62208802E-02  0.48060798E-03
    7    5    0.18479931E-02 -0.46290859E-03
    8    5   -0.62272389E-02  0.37390618E-03
    1    6    0.11040862E-02 -0.55418347E-04
    2    6   -0.18894647E-02  0.48778916E-03
    3    6   -0.33978107E-02  0.20271645E-03
    4    6   -0.45969650E-03  0.14901273E-03
    5    6   -0.27449701E-02 -0.21206864E-03
    6    6   -0.86672037E-03  0.78001494E-10
    7    6    0.35309953E-02 -0.60008152E-03
    8    6   -0.28145008E-02 -0.48223645E-04
    1    7    0.32565111E-02  0.38667811E-03
    2    7   -0.17650449E-01  0.14916048E-02
    3    7    0.33837466E-02  0.36943361E-03
    4    7   -0.91182726E-02  0.13326982E-02
    5    7   -0.76215508E-03 -0.19091436E-03
    6    7    0.21523946E-02  0.36579272E-03
    7    7   -0.86671948E-03  0.13620814E-09
    8    7   -0.27322075E-02 -0.51263573E-03
    1    8   -0.12370903E-02  0.83361851E-04
    2    8    0.80168130E-02 -0.22168070E-02
    3    8   -0.76919835E-02  0.59131077E-03
    4    8   -0.32192746E-02  0.11048393E-02
    5    8    0.30177353E-02  0.18119562E-03
    6    8   -0.13888317E-02  0.23796073E-04
    7    8   -0.12186341E-02  0.22864888E-03
    8    8   -0.50741474E-02 -0.30288540E-09

   -4    1    1
    1    1   -0.58833782E-02 -0.24862122E-09
    2    1    0.11462203E-01 -0.23532856E-02
    3    1    0.48343130E-03 -0.45626282E-05
    4    1    0.11298785E-01 -0.30458700E-02
    5    1    0.20042645E-01  0.25643971E-02
    6    1   -0.35301823E-02 -0.17719336E-03
    7    1    0.27604891E-02 -0.32778107E-03
    8    1    0.10323462E-01  0.69565407E-03
    1    2   -0.25241611E-02 -0.51823129E-03
    2    2   -0.58824233E-02  0.13325092E-09
    3    2    0.67458064E-02  0.13187404E-02
    4    2   -0.11294536E-02  0.68779943E-04
    5    2   -0.13350429E-01 -0.45691274E-02
    6    2    0.52449122E-02  0.13540391E-02
    7    2   -0.30583504E-02 -0.25845518E-03
    8    2    0.15994506E-01  0.44227948E-02
    1    3   -0.77941344E-03 -0.73572582E-05
    2    3    0.38958088E-02 -0.76159354E-03
    3    3    0.74712982E-03  0.21180939E-09
    4    3    0.38423131E-02 -0.99698729E-03
    5    3    0.27540003E-02  0.37881853E-03
    6    3    0.77806241E-03  0.46419944E-04
    7    3   -0.73987900E-02  0.80779035E-03
    8    3   -0.25580978E-02 -0.19665034E-03
    1    4    0.60243692E-02  0.16240196E-02
    2    4   -0.10327014E-01 -0.62887697E-03
    3    4   -0.27249929E-02 -0.70706947E-03
    4    4    0.74710809E-03  0.16960072E-09
    5    4   -0.50466990E-02 -0.20778422E-02
    6    4    0.33991771E-02  0.11018602E-02
    7    4   -0.27134363E-02 -0.39658615E-03
    8    4    0.70397044E-02  0.24159924E-02
    1    5   -0.51521276E-02  0.65919922E-03
    2    5    0.93621900E-03 -0.32041653E-03
    3    5    0.39325374E-02 -0.54092896E-03
    4    5    0.36706022E-02 -0.15112713E-02
    5    5   -0.58824259E-02  0.55189355E-09
    6    5    0.77712873E-03 -0.60039032E-04
    7    5   -0.75648624E-03  0.18949384E-03
    8    5   -0.19016714E-02  0.11418341E-03
    1    6   -0.35301874E-02  0.17719306E-03
    2    6    0.21974737E-01 -0.56730520E-02
    3    6   -0.48257516E-03  0.28790248E-04
    4    6    0.13924901E-01 -0.45138253E-02
    5    6    0.17660874E-01  0.13644297E-02
    6    6   -0.58833761E-02 -0.33300254E-09
    7    6   -0.34967521E-02  0.59426205E-03
    8    6   -0.11317349E-02 -0.19391928E-04
    1    7    0.39418255E-02  0.46805337E-03
    2    7   -0.51448713E-02  0.43478279E-03
    3    7   -0.14551745E-01 -0.15887416E-02
    4    7   -0.22456623E-01  0.32821817E-02
    5    7    0.46876086E-03  0.11742110E-03
    6    7   -0.34846659E-02 -0.59220732E-03
    7    7    0.74806815E-03 -0.11011589E-09
    8    7   -0.39014362E-02 -0.73201506E-03
    1    8    0.11293433E-02 -0.76101968E-04
    2    8   -0.14928902E-01  0.41281360E-02
    3    8    0.88362129E-02 -0.67927176E-03
    4    8    0.13845487E-01 -0.47517032E-02
    5    8   -0.19778316E-01 -0.11875627E-02
    6    8   -0.64747014E-02  0.11093793E-03
    7    8    0.27666356E-02 -0.51909597E-03
    8    8    0.74806612E-03  0.17462539E-09

   -4    1    2
    1    1    0.74806509E-03  0.15605421E-09
    2    1    0.33340429E-02 -0.68450664E-03
    3    1   -0.14637541E-01  0.13816390E-03
    4    1    0.11297928E-01 -0.30456392E-02
    5    1    0.19356291E-02  0.24765798E-03
    6    1   -0.18819665E-02 -0.94462527E-04
    7    1    0.39418216E-02 -0.46805220E-03
    8    1   -0.39605291E-02 -0.26688287E-03
    1    2    0.18661656E-02  0.38313944E-03
    2    2   -0.58824224E-02 -0.84245704E-10
    3    2    0.18495901E-02  0.36157738E-03
    4    2    0.39622158E-02 -0.24128398E-03
    5    2   -0.20654073E-02 -0.70687685E-03
    6    2    0.20812630E-02  0.53730420E-03
    7    2    0.62162918E-02  0.52532655E-03
    8    2    0.71735584E-02  0.19836299E-02
    1    3   -0.74424213E-02 -0.70249408E-04
    2    3   -0.35144185E-02  0.68703519E-03
    3    3    0.74710605E-03  0.35649639E-09
    4    3   -0.10014508E-01  0.25985206E-02
    5    3    0.98031052E-03  0.13484379E-03
    6    3   -0.62283492E-02 -0.37158974E-03
    7    3   -0.77483877E-03  0.84595882E-04
    8    3   -0.25581099E-02 -0.19665101E-03
    1    4    0.60234216E-02  0.16237644E-02
    2    4   -0.21789886E-02 -0.13269205E-03
    3    4   -0.10952852E-02 -0.28419912E-03
    4    4   -0.58824219E-02 -0.27148665E-11
    5    4   -0.33112611E-02 -0.13633219E-02
    6    4    0.24512440E-02  0.79458278E-03
    7    4    0.25386680E-02  0.37104291E-03
    8    4    0.73762641E-03  0.25314965E-03
    1    5   -0.99499333E-03  0.12730637E-03
    2    5   -0.15172023E-02  0.51925593E-03
    3    5    0.98030081E-03 -0.13484279E-03
    4    5    0.25705942E-02 -0.10583727E-02
    5    5    0.74713300E-03 -0.67970475E-09
    6    5   -0.13448646E-02  0.10390057E-03
    7    5   -0.75609036E-03  0.18939512E-03
    8    5   -0.62281964E-02  0.37396363E-03
    1    6   -0.39645228E-02  0.19899389E-03
    2    6   -0.18894641E-02  0.48778896E-03
    3    6   -0.11681318E-01  0.69691901E-03
    4    6   -0.11131082E-01  0.36081943E-02
    5    6    0.51478770E-02  0.39771072E-03
    6    6   -0.58833777E-02 -0.34189068E-10
    7    6   -0.39134000E-02  0.66506933E-03
    8    6   -0.84350524E-02 -0.14452641E-03
    1    7    0.27604949E-02  0.32778104E-03
    2    7    0.27436841E-02 -0.23186340E-03
    3    7    0.48058974E-03  0.52470576E-04
    4    7   -0.91182585E-02  0.13326899E-02
    5    7    0.46895764E-03  0.11747017E-03
    6    7    0.21524023E-02  0.36579396E-03
    7    7   -0.58833776E-02  0.11508953E-09
    8    7    0.10169428E-01  0.19080611E-02
    1    8    0.28085426E-02 -0.18925479E-03
    2    8    0.77301729E-03 -0.21375464E-03
    3    8    0.88361706E-02 -0.67926922E-03
    4    8   -0.45706811E-03  0.15686364E-03
    5    8   -0.63429880E-02 -0.38085651E-03
    6    8    0.35142488E-03 -0.60214133E-05
    7    8    0.11124949E-02 -0.20873494E-03
    8    8    0.74806611E-03  0.12804551E-09

   -4    2    0
    1    1   -0.86671995E-03 -0.14197730E-10
    2    1    0.47336391E-03 -0.97185699E-04
    3    1   -0.78567213E-03  0.74159344E-05
    4    1    0.32865264E-02 -0.88596567E-03
    5    1   -0.11810448E-02 -0.15111141E-03
    6    1    0.11040776E-02  0.55417802E-04
    7    1   -0.41848938E-03  0.49691763E-04
    8    1    0.21783150E-02  0.14678742E-03
    1    2    0.82304083E-03  0.16897721E-03
    2    2   -0.86617424E-03  0.12748062E-09
    3    2   -0.94151327E-03 -0.18405677E-03
    4    2    0.12377354E-02 -0.75373632E-04
    5    2   -0.37102987E-02 -0.12698344E-02
    6    2   -0.15011050E-02 -0.38752856E-03
    7    2    0.39336726E-03  0.33242612E-04
    8    2   -0.10295188E-01 -0.28468215E-02
    1    3    0.19050089E-02  0.17981873E-04
    2    3    0.34685745E-02 -0.67807315E-03
    3    3   -0.86617387E-03  0.72198938E-10
    4    3    0.18241754E-02 -0.47332960E-03
    5    3    0.32485151E-02  0.44684023E-03
    6    3   -0.19017131E-02 -0.11345780E-03
    7    3    0.13408097E-02 -0.14638784E-03
    8    3    0.54009293E-02  0.41518952E-03
    1    4    0.13023747E-02  0.35108757E-03
    2    4    0.27747996E-02  0.16897536E-03
    3    4   -0.15521983E-02 -0.40275762E-03
    4    4   -0.50742042E-02 -0.16518922E-09
    5    4    0.12525348E-03  0.51569916E-04
    6    4    0.89696092E-04  0.29075489E-04
    7    4    0.27208038E-02  0.39766303E-03
    8    4   -0.12758219E-02 -0.43785590E-03
    1    5    0.25448932E-02 -0.32561159E-03
    2    5    0.33554396E-02 -0.11483844E-02
    3    5    0.32484974E-02 -0.44683781E-03
    4    5   -0.10463411E-02  0.43080362E-03
    5    5   -0.86616630E-03 -0.28911908E-09
    6    5   -0.62208944E-02  0.48060881E-03
    7    5    0.13083575E-02 -0.32773399E-03
    8    5    0.25721877E-02 -0.15444311E-03
    1    6    0.11040854E-02 -0.55418111E-04
    2    6   -0.18894607E-02  0.48778768E-03
    3    6    0.78431577E-03 -0.46793050E-04
    4    6   -0.22018397E-02  0.71373686E-03
    5    6   -0.27449665E-02 -0.21206851E-03
    6    6   -0.86671993E-03  0.66674652E-11
    7    6    0.15808637E-02 -0.26866262E-03
    8    6    0.68726564E-02  0.11775660E-03
    1    7   -0.83774409E-02 -0.99473873E-03
    2    7    0.48152599E-03 -0.40693012E-04
    3    7    0.33834901E-02  0.36940523E-03
    4    7    0.63282219E-02 -0.92491079E-03
    5    7    0.33015722E-02  0.82702023E-03
    6    7   -0.18576962E-02 -0.31570997E-03
    7    7   -0.50741479E-02 -0.42695153E-10
    8    7   -0.18520161E-02 -0.34748881E-03
    1    8    0.35735069E-02 -0.24080301E-03
    2    8    0.17072846E-01 -0.47209779E-02
    3    8    0.10356046E-02 -0.79610521E-04
    4    8   -0.32195247E-02  0.11049245E-02
    5    8    0.67910912E-03  0.40776326E-04
    6    8    0.73755139E-02 -0.12637243E-03
    7    8    0.15760324E-02 -0.29570649E-03
    8    8   -0.86672067E-03  0.15242974E-09

   -4    2    1
    1    1    0.74806566E-03  0.39290078E-10
    2    1    0.33340424E-02 -0.68450668E-03
    3    1    0.48321571E-03 -0.45613682E-05
    4    1   -0.14133672E-01  0.38100844E-02
    5    1    0.19356326E-02  0.24765819E-03
    6    1   -0.18819648E-02 -0.94462601E-04
    7    1    0.98277146E-03 -0.11669451E-03
    8    1   -0.35266344E-02 -0.23764501E-03
    1    2    0.18661678E-02  0.38313974E-03
    2    2   -0.58824234E-02  0.44623482E-10
    3    2   -0.10853165E-02 -0.21216931E-03
    4    2   -0.84210059E-02  0.51280852E-03
    5    2   -0.20654214E-02 -0.70688153E-03
    6    2    0.20812619E-02  0.53730343E-03
    7    2    0.13439923E-02  0.11357819E-03
    8    2   -0.60137355E-02 -0.16629159E-02
    1    3   -0.77982294E-03 -0.73603198E-05
    2    3   -0.10853066E-02  0.21216697E-03
    3    3   -0.58824210E-02 -0.25306487E-09
    4    3    0.34209464E-02 -0.88765236E-03
    5    3    0.39325153E-02  0.54092602E-03
    6    3   -0.19017119E-02 -0.11345783E-03
    7    3   -0.77524777E-03  0.84640749E-04
    8    3    0.21431769E-02  0.16475431E-03
    1    4   -0.71862234E-02 -0.19372266E-02
    2    4    0.32730260E-02  0.19931506E-03
    3    4    0.34328497E-02  0.89074058E-03
    4    4    0.74714545E-03  0.27117947E-09
    5    4    0.32794453E-02  0.13502230E-02
    6    4    0.33991750E-02  0.11018588E-02
    7    4   -0.99256220E-03 -0.14506929E-03
    8    4    0.73723932E-03  0.25301689E-03
    1    5   -0.99499000E-03  0.12730581E-03
    2    5   -0.15172045E-02  0.51925696E-03
    3    5    0.27540221E-02 -0.37882171E-03
    4    5    0.32794382E-02 -0.13502199E-02
    5    5    0.74709327E-03 -0.15802158E-09
    6    5   -0.13448573E-02  0.10389965E-03
    7    5   -0.72196976E-02  0.18084828E-02
    8    5    0.35668841E-02 -0.21416832E-03
    1    6   -0.39645214E-02  0.19899398E-03
    2    6   -0.18894613E-02  0.48778798E-03
    3    6    0.51540504E-02 -0.30749592E-03
    4    6    0.13924860E-01 -0.45138113E-02
    5    6    0.51478726E-02  0.39771041E-03
    6    6   -0.58833784E-02  0.20795899E-09
    7    6   -0.97567993E-03  0.16581366E-03
    8    6    0.18840581E-02  0.32281668E-04
    1    7    0.98276819E-03  0.11669400E-03
    2    7   -0.78292590E-03  0.66163495E-04
    3    7    0.48038529E-03  0.52447708E-04
    4    7    0.19308902E-02 -0.28221206E-03
    5    7   -0.14199489E-01 -0.35568696E-02
    6    7    0.10898433E-02  0.18521533E-03
    7    7    0.74806589E-03 -0.22107371E-09
    8    7   -0.34740113E-02 -0.65181877E-03
    1    8   -0.35388646E-02  0.23846895E-03
    2    8   -0.26535658E-02  0.73376342E-03
    3    8    0.63499435E-02 -0.48814497E-03
    4    8   -0.45725705E-03  0.15692881E-03
    5    8    0.39025318E-01  0.23432213E-02
    6    8    0.73755131E-02 -0.12637245E-03
    7    8   -0.34860582E-02  0.65407932E-03
    8    8   -0.58833780E-02 -0.13499507E-09

   -4    2    2
    1    1   -0.50741471E-02  0.41675889E-09
    2    1   -0.25771352E-02  0.52910729E-03
    3    1    0.34034348E-02 -0.32125626E-04
    4    1    0.32862827E-02 -0.88589975E-03
    5    1    0.63437132E-02  0.81165980E-03
    6    1   -0.17457638E-02 -0.87626341E-04
    7    1   -0.83774406E-02  0.99473832E-03
    8    1   -0.18800705E-02 -0.12669046E-03
    1    2   -0.76392296E-03 -0.15683966E-03
    2    2   -0.86616894E-03  0.66404060E-10
    3    2    0.34685752E-02  0.67807312E-03
    4    2    0.39622376E-02 -0.24128572E-03
    5    2    0.33438162E-02  0.11444066E-02
    6    2    0.20812657E-02  0.53730451E-03
    7    2   -0.77708221E-03 -0.65669731E-04
    8    2    0.75125385E-03  0.20773605E-03
    1    3    0.13487190E-02  0.12730371E-04
    2    3   -0.94151909E-03  0.18405789E-03
    3    3   -0.86616940E-03  0.23461158E-09
    4    3   -0.21130454E-02  0.54828482E-03
    5    3   -0.83579097E-02 -0.11496486E-02
    6    3    0.26316773E-02  0.15700837E-03
    7    3    0.18938418E-02 -0.20676738E-03
    8    3    0.54009248E-02  0.41518939E-03
    1    4    0.13022917E-02  0.35106539E-03
    2    4    0.26822993E-03  0.16334332E-04
    3    4   -0.34661532E-02 -0.89938298E-03
    4    4   -0.86617594E-03 -0.13582669E-09
    5    4   -0.10463377E-02 -0.43080218E-03
    6    4   -0.79927357E-03 -0.25908870E-03
    7    4    0.25386901E-02  0.37104630E-03
    8    4   -0.18019286E-02 -0.61841299E-03
    1    5    0.27274790E-02 -0.34897310E-03
    2    5    0.14315543E-03 -0.48994242E-04
    3    5   -0.41726724E-03  0.57395817E-04
    4    5    0.12525692E-03 -0.51571027E-04
    5    5   -0.50742035E-02 -0.10812788E-09
    6    5    0.21214645E-02 -0.16389847E-03
    7    5    0.13084474E-02 -0.32775659E-03
    8    5   -0.66449724E-03  0.39898755E-04
    1    6   -0.98842933E-03  0.49613055E-04
    2    6   -0.54230374E-02  0.14000247E-02
    3    6    0.51540466E-02 -0.30749639E-03
    4    6   -0.45968919E-03  0.14901087E-03
    5    6   -0.11667350E-01 -0.90138683E-03
    6    6   -0.86671988E-03 -0.11245879E-09
    7    6   -0.39134026E-02  0.66507063E-03
    8    6    0.18840581E-02  0.32282026E-04
    1    7   -0.41848806E-03 -0.49691311E-04
    2    7    0.48080843E-03 -0.40632156E-04
    3    7   -0.78107482E-03 -0.85276750E-04
    4    7   -0.11781513E-02  0.17219446E-03
    5    7    0.33018403E-02  0.82708681E-03
    6    7   -0.26501598E-03 -0.45038675E-04
    7    7   -0.86672034E-03 -0.12828423E-09
    8    7    0.21458148E-02  0.40261322E-03
    1    8    0.15999046E-02 -0.10781095E-03
    2    8   -0.46523970E-03  0.12864789E-03
    3    8    0.10356063E-02 -0.79610552E-04
    4    8    0.74315868E-03 -0.25504825E-03
    5    8   -0.63437139E-02 -0.38090012E-03
    6    8    0.19480709E-03 -0.33377873E-05
    7    8    0.35201821E-02 -0.66048118E-03
    8    8   -0.86671985E-03 -0.13283255E-09

   -3   -3    3
    1    1    0.37998892E-02  0.11291358E-14
    2    1    0.15089731E-02 -0.30980472E-03
    3    1   -0.10047850E-02  0.94842973E-05
    4    1   -0.97019657E-03  0.26154077E-03
    5    1   -0.12239107E-02 -0.15659558E-03
    6    1    0.15126922E-02  0.75927763E-04
    7    1    0.40824583E-03 -0.48475103E-04
    8    1   -0.49724200E-03 -0.33506925E-04
    1    2    0.15089735E-02  0.30980479E-03
    2    2    0.38001551E-02  0.11483112E-14
    3    2   -0.20314549E-02 -0.39712977E-03
    4    2    0.49746840E-03 -0.30294212E-04
    5    2    0.18264879E-03  0.62510691E-04
    6    2   -0.11762362E-02 -0.30366008E-03
    7    2    0.12752922E-02  0.10777244E-03
    8    2   -0.12335769E-02 -0.34110813E-03
    1    3   -0.10047852E-02 -0.94842985E-05
    2    3   -0.20314554E-02  0.39712987E-03
    3    3    0.38001560E-02  0.11182357E-14
    4    3    0.48241979E-03 -0.12517607E-03
    5    3    0.40731464E-03  0.56027159E-04
    6    3    0.10030471E-02  0.59842639E-04
    7    3   -0.99889395E-03  0.10905798E-03
    8    3    0.17465599E-02  0.13426444E-03
    1    4   -0.97019665E-03 -0.26154080E-03
    2    4    0.49746967E-03  0.30294288E-04
    3    4    0.48241996E-03  0.12517611E-03
    4    4    0.38001550E-02  0.11557065E-14
    5    4    0.28892495E-03  0.11895681E-03
    6    4   -0.14653821E-02 -0.47501090E-03
    7    4   -0.12209166E-02 -0.17844477E-03
    8    4    0.95041728E-03  0.32617851E-03
    1    5   -0.12239100E-02  0.15659549E-03
    2    5    0.18264934E-03 -0.62510879E-04
    3    5    0.40731415E-03 -0.56027092E-04
    4    5    0.28892001E-03 -0.11895478E-03
    5    5    0.38001548E-02  0.10669478E-14
    6    5   -0.66790044E-03  0.51600132E-04
    7    5   -0.97471247E-03  0.24415844E-03
    8    5   -0.48182948E-03  0.28930822E-04
    1    6    0.15126923E-02 -0.75927769E-04
    2    6   -0.11762364E-02  0.30366013E-03
    3    6    0.10030474E-02 -0.59842651E-04
    4    6   -0.14653819E-02  0.47501083E-03
    5    6   -0.66790080E-03 -0.51600160E-04
    6    6    0.37998892E-02  0.11205141E-14
    7    6   -0.49132570E-03  0.83499308E-04
    8    6    0.11452682E-02  0.19623169E-04
    1    7    0.40824621E-03  0.48475149E-04
    2    7    0.12752918E-02 -0.10777241E-03
    3    7   -0.99889394E-03 -0.10905798E-03
    4    7   -0.12209158E-02  0.17844465E-03
    5    7   -0.97471238E-03 -0.24415841E-03
    6    7   -0.49132481E-03 -0.83499156E-04
    7    7    0.37998891E-02  0.11130644E-14
    8    7   -0.48982223E-03 -0.91904001E-04
    1    8   -0.49724216E-03  0.33506936E-04
    2    8   -0.12335761E-02  0.34110791E-03
    3    8    0.17465610E-02 -0.13426452E-03
    4    8    0.95041727E-03 -0.32617850E-03
    5    8   -0.48182961E-03 -0.28930830E-04
    6    8    0.11452693E-02 -0.19623188E-04
    7    8   -0.48982240E-03  0.91904033E-04
    8    8    0.37998890E-02  0.11177923E-14

   -3   -2    2
    1    1   -0.72340470E-03 -0.44104205E-11
    2    1    0.47283456E-03 -0.97076796E-04
    3    1    0.12798132E-02 -0.12080051E-04
    4    1    0.46589090E-03 -0.12559251E-03
    5    1    0.34402886E-03  0.44017380E-04
    6    1    0.20673762E-02  0.10376926E-03
    7    1   -0.14817904E-02  0.17594806E-03
    8    1    0.19932779E-02  0.13431842E-03
    1    2    0.47283505E-03  0.97076844E-04
    2    2   -0.72353442E-03  0.51923517E-10
    3    2    0.26373838E-03  0.51558559E-04
    4    2   -0.19945594E-02  0.12146120E-03
    5    2    0.58927566E-04  0.20167792E-04
    6    2    0.16961046E-02  0.43787055E-03
    7    2    0.68901125E-03  0.58226849E-04
    8    2   -0.22114180E-03 -0.61150078E-04
    1    3    0.15404454E-02  0.14540245E-04
    2    3    0.11241813E-02 -0.21976676E-03
    3    3   -0.21998906E-02  0.14316772E-11
    4    3    0.11087407E-02 -0.28769125E-03
    5    3    0.49374434E-03  0.67915844E-04
    6    3   -0.15377792E-02 -0.91745579E-04
    7    3    0.86411152E-03 -0.94342516E-04
    8    3    0.14331537E-03  0.11017240E-04
    1    4    0.64680154E-03  0.17436157E-03
    2    4    0.31187182E-03  0.18991854E-04
    3    4   -0.14445022E-02 -0.37481313E-03
    4    4   -0.21998919E-02 -0.10890691E-09
    5    4   -0.13799488E-02 -0.56815675E-03
    6    4   -0.82674654E-03 -0.26799399E-03
    7    4    0.65859611E-02  0.96258104E-03
    8    4   -0.82203447E-03 -0.28211804E-03
    1    5    0.34403325E-03 -0.44018109E-04
    2    5    0.58926727E-04 -0.20167345E-04
    3    5   -0.14784169E-02  0.20335974E-03
    4    5    0.24848558E-03 -0.10230699E-03
    5    5   -0.72352445E-03 -0.34141597E-10
    6    5   -0.12760670E-02  0.98585485E-04
    7    5    0.12414817E-02 -0.31098231E-03
    8    5    0.68971439E-03 -0.41412909E-04
    1    6    0.20673753E-02 -0.10376929E-03
    2    6    0.16961041E-02 -0.43787056E-03
    3    6   -0.12775990E-02  0.76222781E-04
    4    6    0.35047527E-03 -0.11360829E-03
    5    6   -0.12760664E-02 -0.98585156E-04
    6    6   -0.72340517E-03 -0.96933462E-10
    7    6   -0.18994430E-03  0.32280472E-04
    8    6   -0.61482250E-03 -0.10534366E-04
    1    7    0.49489331E-03  0.58763548E-04
    2    7    0.33415756E-03 -0.28239145E-04
    3    7    0.86396386E-03  0.94326477E-04
    4    7   -0.17332983E-02  0.25333299E-03
    5    7    0.14942777E-02  0.37430604E-03
    6    7    0.20407178E-02  0.34681327E-03
    7    7   -0.21998172E-02 -0.13322886E-09
    8    7   -0.11257927E-02 -0.21122937E-03
    1    8   -0.31163030E-03  0.20999216E-04
    2    8    0.33231074E-02 -0.91890436E-03
    3    8   -0.19407476E-02  0.14919242E-03
    4    8   -0.82217269E-03  0.28216558E-03
    5    8   -0.33474467E-03 -0.20099271E-04
    6    8   -0.19975044E-02  0.34225280E-04
    7    8    0.14666087E-02 -0.27517556E-03
    8    8   -0.21998161E-02  0.18299464E-09

   -3   -2    3
    1    1   -0.21998170E-02 -0.47677983E-10
    2    1   -0.67683557E-03  0.13896009E-03
    3    1    0.86906020E-03 -0.82030558E-05
    4    1    0.46606134E-03 -0.12563854E-03
    5    1    0.12049797E-02  0.15417356E-03
    6    1   -0.11439963E-02 -0.57421472E-04
    7    1    0.49489251E-03 -0.58763695E-04
    8    1   -0.11428449E-02 -0.77011438E-04
    1    2   -0.98429652E-03 -0.20208428E-03
    2    2   -0.72352529E-03 -0.13207878E-09
    3    2    0.48913089E-03  0.95620443E-04
    4    2    0.49746730E-03 -0.30293993E-04
    5    2    0.47154097E-03  0.16138279E-03
    6    2   -0.11762342E-02 -0.30365965E-03
    7    2    0.66744006E-03  0.56404028E-04
    8    2   -0.83766360E-03 -0.23163033E-03
    1    3    0.86920692E-03  0.82045813E-05
    2    3    0.19094019E-03 -0.37327255E-04
    3    3   -0.21998924E-02 -0.99644515E-10
    4    3   -0.19342003E-02  0.50187804E-03
    5    3   -0.15005955E-02 -0.20641017E-03
    6    3   -0.48166282E-03 -0.28736555E-04
    7    3    0.15314124E-02 -0.16719758E-03
    8    3    0.14331487E-03  0.11016956E-04
    1    4    0.64673262E-03  0.17434291E-03
    2    4    0.26823476E-03  0.16334333E-04
    3    4    0.30243408E-03  0.78474297E-04
    4    4   -0.72353447E-03  0.44183459E-10
    5    4    0.46085560E-03  0.18974488E-03
    6    4   -0.45917557E-03 -0.14884404E-03
    7    4   -0.12209151E-02 -0.17844491E-03
    8    4   -0.14570303E-02 -0.50004567E-03
    1    5   -0.11641013E-02  0.14894335E-03
    2    5   -0.13146535E-02  0.44993478E-03
    3    5   -0.98414993E-03  0.13537186E-03
    4    5    0.24456397E-02 -0.10069260E-02
    5    5   -0.21998919E-02  0.36359950E-10
    6    5   -0.68919624E-03  0.53245011E-04
    7    5    0.12415131E-02 -0.31099012E-03
    8    5   -0.39406223E-03  0.23660835E-04
    1    6   -0.49774300E-03  0.24983634E-04
    2    6   -0.45776441E-04  0.11817845E-04
    3    6   -0.66869853E-03  0.39895197E-04
    4    6   -0.45917607E-03  0.14884437E-03
    5    6    0.10018421E-02  0.77399416E-04
    6    6   -0.72340494E-03 -0.19858556E-10
    7    6   -0.49132466E-03  0.83498974E-04
    8    6    0.15121911E-03  0.25910376E-05
    1    7   -0.14817906E-02 -0.17594808E-03
    2    7    0.83758793E-03 -0.70783204E-04
    3    7    0.12723090E-02  0.13890905E-03
    4    7    0.19260130E-02 -0.28149910E-03
    5    7    0.14943470E-02  0.37432305E-03
    6    7   -0.26501451E-03 -0.45038183E-04
    7    7   -0.72340561E-03 -0.14889607E-10
    8    7    0.19635367E-02  0.36841296E-03
    1    8    0.14888236E-02 -0.10032563E-03
    2    8    0.25409988E-02 -0.70263614E-03
    3    8   -0.19407499E-02  0.14919255E-03
    4    8   -0.12105363E-02  0.41545010E-03
    5    8   -0.48165330E-03 -0.28920178E-04
    6    8   -0.95944837E-03  0.16439214E-04
    7    8   -0.30697898E-03  0.57597643E-04
    8    8   -0.21998170E-02  0.26001392E-10

   -3   -1    1
    1    1    0.68878405E-03  0.13446480E-09
    2    1    0.26968975E-02 -0.55369518E-03
    3    1   -0.90844083E-03  0.85745835E-05
    4    1   -0.77458243E-03  0.20880798E-03
    5    1    0.15377877E-02  0.19675556E-03
    6    1   -0.47719041E-03 -0.23951936E-04
    7    1   -0.26079600E-03  0.30967083E-04
    8    1   -0.10259791E-02 -0.69137083E-04
    1    2    0.26968970E-02  0.55369538E-03
    2    2    0.68849153E-03 -0.18812195E-10
    3    2    0.32181715E-02  0.62912138E-03
    4    2    0.10264386E-02 -0.62505816E-04
    5    2    0.31024213E-02  0.10617899E-02
    6    2    0.11528703E-02  0.29762775E-03
    7    2   -0.85112568E-02 -0.71926967E-03
    8    2   -0.92828462E-02 -0.25668905E-02
    1    3   -0.69077974E-03 -0.65203252E-05
    2    3   -0.41337403E-03  0.80810460E-04
    3    3   -0.26750040E-02 -0.12473655E-10
    4    3   -0.15521997E-02  0.40275799E-03
    5    3   -0.95039097E-03 -0.13072837E-03
    6    3    0.68958437E-03  0.41141286E-04
    7    3    0.45915952E-02 -0.50130458E-03
    8    3    0.27952395E-02  0.21488062E-03
    1    4    0.66742359E-03  0.17992077E-03
    2    4    0.26399204E-02  0.16076071E-03
    3    4    0.12002764E-02  0.31144297E-03
    4    4   -0.26750078E-02  0.20623135E-09
    5    4    0.16161460E-02  0.66540411E-03
    6    4    0.28756177E-02  0.93214587E-03
    7    4   -0.39308353E-02 -0.57451764E-03
    8    4   -0.43688278E-02 -0.14993599E-02
    1    5    0.15377738E-02 -0.19675328E-03
    2    5    0.31024154E-02 -0.10617879E-02
    3    5   -0.26004271E-03  0.35769437E-04
    4    5   -0.10225688E-02  0.42101480E-03
    5    5    0.68849014E-03 -0.12093460E-09
    6    5   -0.83772995E-03  0.64720811E-04
    7    5   -0.88138706E-03  0.22078103E-03
    8    5    0.93887267E-04 -0.56371668E-05
    1    6   -0.47719207E-03  0.23952097E-04
    2    6    0.11528699E-02 -0.29762755E-03
    3    6    0.90687411E-03 -0.54105543E-04
    4    6    0.64677507E-03 -0.20965551E-03
    5    6   -0.83771968E-03 -0.64719610E-04
    6    6    0.68878480E-03 -0.17388516E-09
    7    6    0.13693849E-02 -0.23272248E-03
    8    6    0.41266870E-02  0.70706978E-04
    1    7   -0.95289503E-03 -0.11314698E-03
    2    7    0.27433696E-02 -0.23183656E-03
    3    7    0.45916680E-02  0.50131261E-03
    4    7    0.55419604E-02 -0.80999350E-03
    5    7   -0.67024209E-03 -0.16789092E-03
    6    7   -0.19208216E-03 -0.32643878E-04
    7    7   -0.26751054E-02  0.29623535E-09
    8    7    0.15760344E-02  0.29570698E-03
    1    8   -0.26397656E-02  0.17788263E-03
    2    8   -0.11166100E-01  0.30876453E-02
    3    8    0.10099124E-01 -0.77635745E-03
    4    8   -0.43687603E-02  0.14993371E-02
    5    8   -0.83906670E-03 -0.50380567E-04
    6    8   -0.12616066E-02  0.21616342E-04
    7    8   -0.12186291E-02  0.22864769E-03
    8    8   -0.26751065E-02  0.24426988E-10

   -3   -1    2
    1    1    0.21345331E-02 -0.13300804E-09
    2    1   -0.78564101E-03  0.16129874E-03
    3    1   -0.30227856E-02  0.28531821E-04
    4    1   -0.75863622E-03  0.20450956E-03
    5    1    0.46894269E-04  0.60001855E-05
    6    1   -0.19459075E-03 -0.97672419E-05
    7    1    0.61966426E-04 -0.73580784E-05
    8    1    0.42047464E-03  0.28333956E-04
    1    2    0.32849577E-03  0.67442776E-04
    2    2   -0.97450039E-03 -0.23445789E-09
    3    2    0.61130064E-04  0.11950427E-04
    4    2   -0.95756380E-03  0.58312156E-04
    5    2    0.25425195E-03  0.87016589E-04
    6    2   -0.45776415E-04 -0.11817766E-04
    7    2    0.68900561E-03  0.58226828E-04
    8    2   -0.38048746E-03 -0.10521225E-03
    1    3   -0.21276928E-02 -0.20083354E-04
    2    3    0.13293987E-03 -0.25988579E-04
    3    3    0.33272863E-02  0.19839165E-09
    4    3   -0.40769514E-03  0.10578692E-03
    5    3    0.11347742E-02  0.15609064E-03
    6    3    0.68958149E-03  0.41141184E-04
    7    3   -0.21152177E-02  0.23093688E-03
    8    3   -0.27416213E-02 -0.21075865E-03
    1    4   -0.33289789E-02 -0.89740944E-03
    2    4   -0.39143309E-02 -0.23836903E-03
    3    4    0.43394935E-02  0.11259935E-02
    4    4    0.21346583E-02  0.32935821E-09
    5    4    0.17851591E-03  0.73498951E-04
    6    4   -0.21826272E-03 -0.70750964E-04
    7    4   -0.11612503E-02 -0.16972391E-03
    8    4    0.20123914E-02  0.69064285E-03
    1    5    0.75252140E-04 -0.96281854E-05
    2    5   -0.51636506E-02  0.17672365E-02
    3    5    0.12284626E-02 -0.16897785E-03
    4    5    0.30321529E-02 -0.12484074E-02
    5    5    0.21346529E-02 -0.32155580E-10
    6    5    0.90578699E-03 -0.69978592E-04
    7    5   -0.25573430E-02  0.64059576E-03
    8    5   -0.13463574E-02  0.80840043E-04
    1    6   -0.26847768E-03  0.13475921E-04
    2    6    0.11528752E-02 -0.29762917E-03
    3    6   -0.69002090E-03  0.41167084E-04
    4    6    0.74742152E-03 -0.24228027E-03
    5    6   -0.33435116E-03 -0.25830861E-04
    6    6   -0.97455703E-03 -0.88677340E-10
    7    6   -0.61518961E-04  0.10454820E-04
    8    6   -0.16032952E-02 -0.27471035E-04
    1    7    0.61965428E-04  0.73576902E-05
    2    7    0.21366973E-03 -0.18056502E-04
    3    7   -0.30050612E-02 -0.32808923E-03
    4    7   -0.11781491E-02  0.17219418E-03
    5    7   -0.35738774E-03 -0.89523177E-04
    6    7   -0.47103723E-03 -0.80051538E-04
    7    7    0.21345332E-02  0.17825463E-09
    8    7    0.41420032E-03  0.77715272E-04
    1    8   -0.44728713E-02  0.30140776E-03
    2    8   -0.10295053E-01  0.28467826E-02
    3    8    0.14671309E-01 -0.11278373E-02
    4    8    0.28594698E-02 -0.98135587E-03
    5    8   -0.22877657E-03 -0.13736506E-04
    6    8   -0.12616071E-02  0.21616172E-04
    7    8   -0.44061301E-02  0.82670994E-03
    8    8    0.33273501E-02 -0.14778018E-09

   -3   -1    3
    1    1   -0.26751054E-02 -0.70173967E-10
    2    1    0.65188974E-03 -0.13383891E-03
    3    1    0.46187482E-02 -0.43596698E-04
    4    1   -0.77438407E-03  0.20875413E-03
    5    1   -0.14257691E-03 -0.18242342E-04
    6    1   -0.13550926E-03 -0.68017812E-05
    7    1   -0.95289196E-03  0.11314638E-03
    8    1    0.15999016E-02  0.10781081E-03
    1    2    0.12536872E-02  0.25739238E-03
    2    2    0.68849145E-03 -0.37643735E-10
    3    2    0.18945957E-03  0.37037875E-04
    4    2    0.26823411E-03 -0.16334483E-04
    5    2   -0.19583884E-02 -0.67025004E-03
    6    2   -0.45778226E-04 -0.11818231E-04
    7    2    0.12752954E-02  0.10777276E-03
    8    2    0.20506513E-02  0.56704543E-03
    1    3    0.46186736E-02  0.43595836E-04
    2    3    0.34570822E-03 -0.67581960E-04
    3    3   -0.26750072E-02  0.11152289E-09
    4    3    0.99534757E-03 -0.25826828E-03
    5    3    0.14989566E-03  0.20618680E-04
    6    3    0.80081459E-03  0.47777961E-04
    7    3   -0.68673179E-03  0.74976420E-04
    8    3    0.27952458E-02  0.21488094E-03
    1    4    0.66763086E-03  0.17997673E-03
    2    4   -0.21789851E-02 -0.13269191E-03
    3    4    0.25600151E-02  0.66426196E-03
    4    4    0.68849279E-03 -0.19219764E-09
    5    4   -0.18477694E-02 -0.76076914E-03
    6    4   -0.26189895E-02 -0.84895832E-03
    7    4    0.19260178E-02  0.28150021E-03
    8    4    0.65353742E-03  0.22429074E-03
    1    5    0.31282901E-02 -0.40025595E-03
    2    5    0.33327869E-03 -0.11406332E-03
    3    5    0.68263383E-02 -0.93897677E-03
    4    5    0.25908538E-01 -0.10667137E-01
    5    5   -0.26750022E-02  0.16622110E-09
    6    5    0.82926898E-02 -0.64066919E-03
    7    5   -0.88126079E-03  0.22074972E-03
    8    5   -0.61560555E-02  0.36963083E-03
    1    6   -0.62322662E-04  0.31284194E-05
    2    6   -0.58917743E-03  0.15210385E-03
    3    6   -0.69001672E-03  0.41166792E-04
    4    6   -0.26189886E-02  0.84895791E-03
    5    6   -0.48108784E-03 -0.37167495E-04
    6    6    0.68878447E-03  0.53120217E-11
    7    6   -0.26501591E-03  0.45038653E-04
    8    6   -0.16032982E-02 -0.27471059E-04
    1    7   -0.26078905E-03 -0.30966150E-04
    2    7   -0.25682395E-02  0.21703679E-03
    3    7   -0.90311824E-03 -0.98601402E-04
    4    7   -0.62683651E-02  0.91616222E-03
    5    7   -0.67010761E-03 -0.16785710E-03
    6    7    0.21524038E-02  0.36579440E-03
    7    7    0.68878592E-03  0.17213453E-11
    8    7   -0.10106659E-02 -0.18962925E-03
    1    8   -0.12370910E-02  0.83362185E-04
    2    8   -0.60128090E-02  0.16626598E-02
    3    8    0.10099143E-01 -0.77635745E-03
    4    8    0.85941745E-03 -0.29494795E-03
    5    8   -0.39410945E-03 -0.23663527E-04
    6    8   -0.35810859E-02  0.61358266E-04
    7    8   -0.26003797E-02  0.48790257E-03
    8    8   -0.26751049E-02 -0.22402153E-10

   -3    0    0
    1    1    0.65864557E-02  0.34142654E-14
    2    1   -0.17351656E-01  0.35624388E-02
    3    1    0.66566538E-03 -0.62831623E-05
    4    1   -0.80306895E-02  0.21648735E-02
    5    1   -0.53730615E-02 -0.68746774E-03
    6    1    0.51475960E-02  0.25837767E-03
    7    1    0.68257336E-02 -0.81048865E-03
    8    1   -0.27954517E-01 -0.18837335E-02
    1    2   -0.17351612E-01 -0.35624296E-02
    2    2    0.65875128E-02  0.24603921E-14
    3    2    0.27282960E-02  0.53335573E-03
    4    2    0.27966741E-01 -0.17030738E-02
    5    2   -0.97887290E-02 -0.33501494E-02
    6    2   -0.19564560E-01 -0.50508359E-02
    7    2    0.15434075E-01  0.13043037E-02
    8    2    0.28014883E-01  0.77466649E-02
    1    3    0.66566728E-03  0.62831803E-05
    2    3    0.27283066E-02 -0.53335779E-03
    3    3    0.14568283E-01  0.96616630E-15
    4    3   -0.27249681E-02  0.70706397E-03
    5    3    0.68093782E-02  0.93664516E-03
    6    3   -0.66451327E-03 -0.39645263E-04
    7    3   -0.12078649E-01  0.13187312E-02
    8    3   -0.57614689E-02 -0.44290562E-03
    1    4   -0.80307487E-02 -0.21648895E-02
    2    4    0.27966871E-01  0.17030817E-02
    3    4   -0.27249836E-02 -0.70706799E-03
    4    4    0.14568303E-01  0.20833355E-14
    5    4    0.17426824E-02  0.71750278E-03
    6    4   -0.18847978E-01 -0.61096645E-02
    7    4   -0.21063670E-02 -0.30785865E-03
    8    4    0.11492489E-01  0.39441651E-02
    1    5   -0.53730535E-02  0.68746672E-03
    2    5   -0.97887286E-02  0.33501492E-02
    3    5    0.68093595E-02 -0.93664259E-03
    4    5    0.17426798E-02 -0.71750169E-03
    5    5    0.65875212E-02  0.19625227E-14
    6    5    0.25691704E-02 -0.19848687E-03
    7    5    0.64554253E-03 -0.16170351E-03
    8    5    0.35663746E-02 -0.21413812E-03
    1    6    0.51476363E-02 -0.25837970E-03
    2    6   -0.19564590E-01  0.50508435E-02
    3    6   -0.66451517E-03  0.39645376E-04
    4    6   -0.18847872E-01  0.61096302E-02
    5    6    0.25691692E-02  0.19848678E-03
    6    6    0.65864551E-02 -0.25895510E-14
    7    6   -0.34648868E-03  0.58884574E-04
    8    6   -0.22951735E-01 -0.39325609E-03
    1    7    0.68257148E-02  0.81048642E-03
    2    7    0.15434073E-01 -0.13043035E-02
    3    7   -0.12078535E-01 -0.13187187E-02
    4    7   -0.21063670E-02  0.30785865E-03
    5    7    0.64554068E-03  0.16170305E-03
    6    7   -0.34651887E-03 -0.58889705E-04
    7    7    0.14568002E-01  0.11204241E-14
    8    7    0.27666205E-02  0.51909333E-03
    1    8   -0.27954646E-01  0.18837422E-02
    2    8    0.28014772E-01 -0.77466343E-02
    3    8   -0.57615044E-02  0.44290835E-03
    4    8    0.11492380E-01 -0.39441277E-02
    5    8    0.35663752E-02  0.21413816E-03
    6    8   -0.22951602E-01  0.39325380E-03
    7    8    0.27666362E-02 -0.51909628E-03
    8    8    0.14568007E-01  0.70579834E-15

   -3    0    1
    1    1   -0.44009932E-02  0.26358978E-09
    2    1    0.15172656E-01 -0.31150734E-02
    3    1    0.19812566E-01 -0.18701180E-03
    4    1    0.46678528E-03 -0.12583341E-03
    5    1    0.60357490E-03  0.77225664E-04
    6    1   -0.73673142E-02 -0.36979305E-03
    7    1   -0.54192745E-02  0.64348514E-03
    8    1   -0.27735937E-02 -0.18690058E-03
    1    2    0.21004844E-03  0.43124509E-04
    2    2   -0.11272781E-02  0.23199084E-09
    3    2   -0.53563277E-02 -0.10471111E-02
    4    2    0.68607913E-02 -0.41779683E-03
    5    2   -0.20654169E-02 -0.70687996E-03
    6    2   -0.58917880E-03 -0.15210401E-03
    7    2   -0.82880517E-02 -0.70040678E-03
    8    2    0.29582333E-02  0.81801104E-03
    1    3    0.13488114E-02  0.12731205E-04
    2    3    0.27283011E-02 -0.53335683E-03
    3    3   -0.46739751E-02  0.31778640E-09
    4    3    0.95781497E-03 -0.24852983E-03
    5    3    0.13419124E-03  0.18458666E-04
    6    3    0.94121163E-04  0.56155614E-05
    7    3    0.32242609E-02 -0.35201995E-03
    8    3    0.10001507E-02  0.76885081E-04
    1    4    0.10313366E-01  0.27802267E-02
    2    4    0.12884449E-01  0.78461409E-03
    3    4   -0.40135843E-01 -0.10414278E-01
    4    4   -0.78613369E-02 -0.41062316E-09
    5    4   -0.12848854E-02 -0.52901699E-03
    6    4   -0.43778188E-02 -0.14190896E-02
    7    4    0.31206411E-02  0.45610137E-03
    8    4   -0.30682813E-02 -0.10530191E-02
    1    5    0.25449206E-02 -0.32561517E-03
    2    5    0.26301618E-02 -0.90016121E-03
    3    5   -0.11209908E-02  0.15419602E-03
    4    5    0.36706044E-02 -0.15112718E-02
    5    5   -0.44006431E-02  0.42308531E-09
    6    5    0.35626930E-02 -0.27524323E-03
    7    5    0.60514995E-02 -0.15158568E-02
    8    5    0.77845002E-03 -0.46740404E-04
    1    6    0.21805115E-02 -0.10944789E-03
    2    6    0.89226082E-02 -0.23034842E-02
    3    6    0.83026290E-02 -0.49534415E-03
    4    6   -0.45988774E-03  0.14907423E-03
    5    6   -0.21379380E-03 -0.16517182E-04
    6    6   -0.11274897E-02  0.11654638E-09
    7    6    0.53801809E-02 -0.91434420E-03
    8    6    0.35463662E-02  0.60763621E-04
    1    7   -0.35566293E-02 -0.42231467E-03
    2    7   -0.17650616E-01  0.14916180E-02
    3    7    0.63176427E-02  0.68975229E-03
    4    7    0.19308941E-02 -0.28221247E-03
    5    7   -0.65995271E-03 -0.16531333E-03
    6    7   -0.72723227E-02 -0.12359073E-02
    7    7   -0.78604708E-02 -0.12403967E-08
    8    7   -0.97270182E-03 -0.18250561E-03
    1    8    0.11841736E-01 -0.79796661E-03
    2    8    0.28014686E-01 -0.77466049E-02
    3    8   -0.94245141E-01  0.72449712E-02
    4    8   -0.60102902E-02  0.20627016E-02
    5    8   -0.45946113E-02 -0.27587740E-03
    6    8   -0.22384720E-02  0.38354411E-04
    7    8    0.40754015E-01 -0.76465598E-02
    8    8   -0.46744333E-02  0.40980229E-09

   -3    0    2
    1    1   -0.78604825E-02 -0.53911982E-09
    2    1   -0.81477051E-02  0.16727928E-02
    3    1    0.63549372E-02 -0.59984830E-04
    4    1    0.46658864E-03 -0.12578029E-03
    5    1   -0.10302614E-02 -0.13181869E-03
    6    1   -0.35103281E-03 -0.17619534E-04
    7    1   -0.35566287E-02  0.42231495E-03
    8    1   -0.98743480E-03 -0.66539133E-04
    1    2    0.82340538E-03  0.16905220E-03
    2    2   -0.11272829E-02 -0.18420049E-09
    3    2   -0.13637134E-02 -0.26659327E-03
    4    2   -0.11038108E-02  0.67218023E-04
    5    2    0.45269008E-03  0.15493110E-03
    6    2    0.38913856E-02  0.10046095E-02
    7    2   -0.90538880E-03 -0.76512245E-04
    8    2   -0.12999956E-02 -0.35947382E-03
    1    3    0.32432782E-02  0.30613388E-04
    2    3   -0.53563070E-02  0.10471068E-02
    3    3   -0.46739792E-02  0.28892895E-11
    4    3    0.26908423E-02 -0.69820835E-03
    5    3   -0.15886465E-02 -0.21852215E-03
    6    3   -0.66451499E-03 -0.39645613E-04
    7    3    0.13409042E-02 -0.14639806E-03
    8    3    0.10001486E-02  0.76884909E-04
    1    4    0.10313244E-01  0.27801937E-02
    2    4   -0.14084479E-01 -0.85769403E-03
    3    4   -0.11486595E-01 -0.29804914E-02
    4    4   -0.44006217E-02  0.52224600E-09
    5    4   -0.11658930E-02 -0.48002539E-03
    6    4   -0.71685876E-03 -0.23237293E-03
    7    4   -0.10022442E-01 -0.14648458E-02
    8    4   -0.12757398E-02 -0.43782780E-03
    1    5   -0.27200936E-02  0.34802843E-03
    2    5    0.12815707E-03 -0.43861117E-04
    3    5   -0.27889479E-02  0.38362537E-03
    4    5    0.25705971E-02 -0.10583739E-02
    5    5   -0.78613297E-02 -0.11435064E-08
    6    5   -0.66371746E-03  0.51276789E-04
    7    5    0.60524160E-02 -0.15160869E-02
    8    5    0.74293858E-02 -0.44608756E-03
    1    6   -0.32752685E-02  0.16439868E-03
    2    6   -0.19564600E-01  0.50508452E-02
    3    6    0.85279102E-02 -0.50878405E-03
    4    6    0.49116090E-02 -0.15921217E-02
    5    6   -0.27452833E-02 -0.21209258E-03
    6    6   -0.11274907E-02  0.54812871E-09
    7    6   -0.32330299E-02  0.54944265E-03
    8    6    0.98952383E-03  0.16954565E-04
    1    7   -0.54192688E-02 -0.64348481E-03
    2    7    0.21366789E-03 -0.18056493E-04
    3    7    0.19696399E-01  0.21504284E-02
    4    7    0.19993613E-01 -0.29221972E-02
    5    7   -0.65952593E-03 -0.16520636E-03
    6    7    0.50812362E-02  0.86353884E-03
    7    7   -0.44010009E-02  0.13960177E-08
    8    7   -0.27322093E-02 -0.51263655E-03
    1    8    0.41371392E-01 -0.27878402E-02
    2    8    0.29581395E-02 -0.81798344E-03
    3    8   -0.94245257E-01  0.72449745E-02
    4    8   -0.18740947E-01  0.64318003E-02
    5    8   -0.79161107E-02 -0.47531285E-03
    6    8   -0.22951653E-01  0.39325422E-03
    7    8    0.11665059E-01 -0.21886858E-02
    8    8   -0.46744373E-02 -0.40311214E-09

   -3    0    3
    1    1    0.14568008E-01  0.12640466E-16
    2    1   -0.89005173E-03  0.18273509E-03
    3    1   -0.12149830E-01  0.11468264E-03
    4    1   -0.80309499E-02  0.21649444E-02
    5    1   -0.37766747E-03 -0.48321236E-04
    6    1    0.54504749E-02  0.27357952E-03
    7    1    0.68257174E-02 -0.81048639E-03
    8    1    0.28085409E-02  0.18925517E-03
    1    2   -0.89004793E-03 -0.18273431E-03
    2    2    0.65875197E-02 -0.11850935E-16
    3    2   -0.13637165E-02 -0.26659331E-03
    4    2   -0.21789992E-02  0.13269351E-03
    5    2    0.18407477E-03  0.62998919E-04
    6    2   -0.58917993E-03 -0.15210414E-03
    7    2    0.83758587E-03  0.70782618E-04
    8    2   -0.12999931E-02 -0.35947350E-03
    1    3   -0.12149829E-01 -0.11468263E-03
    2    3   -0.13637131E-02  0.26659264E-03
    3    3    0.14568309E-01 -0.99013371E-17
    4    3    0.27120572E-01 -0.70371345E-02
    5    3   -0.25014493E-02 -0.34407997E-03
    6    3    0.83026027E-02  0.49534026E-03
    7    3    0.66176259E-03 -0.72249756E-04
    8    3   -0.57615256E-02 -0.44290945E-03
    1    4   -0.80309493E-02 -0.21649443E-02
    2    4   -0.21789987E-02 -0.13269348E-03
    3    4    0.27120574E-01  0.70371348E-02
    4    4    0.65875067E-02  0.17634135E-16
    5    4    0.95089180E-03  0.39150365E-03
    6    4    0.16850383E-01  0.54621338E-02
    7    4   -0.62683878E-02 -0.91616551E-03
    8    4   -0.62944781E-03 -0.21602319E-03
    1    5   -0.37766655E-03  0.48321118E-04
    2    5    0.18407819E-03 -0.63000088E-04
    3    5   -0.25014493E-02  0.34407997E-03
    4    5    0.95089229E-03 -0.39150385E-03
    5    5    0.14568276E-01 -0.67491048E-17
    6    5    0.79985156E-03 -0.61794673E-04
    7    5    0.64574586E-03 -0.16175512E-03
    8    5   -0.61554198E-02  0.36959447E-03
    1    6    0.54504734E-02 -0.27357945E-03
    2    6   -0.58918000E-03  0.15210416E-03
    3    6    0.83026024E-02 -0.49534025E-03
    4    6    0.16850384E-01 -0.54621339E-02
    5    6    0.79985070E-03  0.61794606E-04
    6    6    0.65864601E-02 -0.97196080E-16
    7    6    0.21523905E-02 -0.36579118E-03
    8    6    0.35463700E-02  0.60764059E-04
    1    7    0.68257184E-02  0.81048650E-03
    2    7    0.83759568E-03 -0.70783447E-04
    3    7    0.66176170E-03  0.72249659E-04
    4    7   -0.62683889E-02  0.91616567E-03
    5    7    0.64574672E-03  0.16175534E-03
    6    7    0.21523910E-02  0.36579126E-03
    7    7    0.65864561E-02  0.93190115E-16
    8    7   -0.27537465E-01 -0.51667736E-02
    1    8    0.28085393E-02 -0.18925507E-03
    2    8   -0.12999972E-02  0.35947462E-03
    3    8   -0.57615182E-02  0.44290888E-03
    4    8   -0.62944696E-03  0.21602290E-03
    5    8   -0.61554184E-02 -0.36959438E-03
    6    8    0.35463699E-02 -0.60764057E-04
    7    8   -0.27537467E-01  0.51667738E-02
    8    8    0.14568003E-01 -0.26813490E-16

   -3    1   -1
    1    1    0.68878405E-03 -0.13446430E-09
    2    1    0.26968979E-02 -0.55369556E-03
    3    1   -0.69077855E-03  0.65203139E-05
    4    1    0.66742401E-03 -0.17992088E-03
    5    1    0.15377801E-02  0.19675409E-03
    6    1   -0.47719004E-03 -0.23951996E-04
    7    1   -0.95289464E-03  0.11314694E-03
    8    1   -0.26397591E-02 -0.17788219E-03
    1    2    0.26968966E-02  0.55369500E-03
    2    2    0.68849153E-03  0.18812257E-10
    3    2   -0.41337538E-03 -0.80810725E-04
    4    2    0.26399140E-02 -0.16076032E-03
    5    2    0.31024145E-02  0.10617876E-02
    6    2    0.11528684E-02  0.29762717E-03
    7    2    0.27433702E-02  0.23183661E-03
    8    2   -0.11166100E-01 -0.30876453E-02
    1    3   -0.90844246E-03 -0.85745989E-05
    2    3    0.32181619E-02 -0.62911951E-03
    3    3   -0.26750040E-02  0.12474278E-10
    4    3    0.12002708E-02 -0.31144154E-03
    5    3   -0.26004806E-03 -0.35770174E-04
    6    3    0.90687248E-03  0.54105446E-04
    7    3    0.45916668E-02 -0.50131248E-03
    8    3    0.10099169E-01  0.77636089E-03
    1    4   -0.77458241E-03 -0.20880798E-03
    2    4    0.10264188E-02  0.62504607E-04
    3    4   -0.15522006E-02 -0.40275824E-03
    4    4   -0.26750078E-02 -0.20623039E-09
    5    4   -0.10225737E-02 -0.42101680E-03
    6    4    0.64677603E-03  0.20965582E-03
    7    4    0.55419604E-02  0.80999350E-03
    8    4   -0.43687592E-02 -0.14993367E-02
    1    5    0.15377814E-02 -0.19675475E-03
    2    5    0.31024222E-02 -0.10617902E-02
    3    5   -0.95039135E-03  0.13072842E-03
    4    5    0.16161473E-02 -0.66540462E-03
    5    5    0.68849014E-03  0.12093565E-09
    6    5   -0.83772592E-03  0.64720092E-04
    7    5   -0.67024324E-03  0.16789121E-03
    8    5   -0.83907585E-03  0.50381116E-04
    1    6   -0.47719244E-03  0.23952038E-04
    2    6    0.11528717E-02 -0.29762812E-03
    3    6    0.68958556E-03 -0.41141357E-04
    4    6    0.28756187E-02 -0.93214619E-03
    5    6   -0.83772371E-03 -0.64720329E-04
    6    6    0.68878480E-03  0.17388589E-09
    7    6   -0.19208353E-03  0.32644111E-04
    8    6   -0.12616134E-02 -0.21616458E-04
    1    7   -0.26079064E-03 -0.30966445E-04
    2    7   -0.85112562E-02  0.71926962E-03
    3    7    0.45915964E-02  0.50130471E-03
    4    7   -0.39308353E-02  0.57451764E-03
    5    7   -0.88138548E-03 -0.22078063E-03
    6    7    0.13694057E-02  0.23272600E-03
    7    7   -0.26751054E-02 -0.29623470E-09
    8    7   -0.12186234E-02 -0.22864663E-03
    1    8   -0.10259592E-02  0.69135746E-04
    2    8   -0.92828445E-02  0.25668900E-02
    3    8    0.27952244E-02 -0.21487946E-03
    4    8   -0.43688290E-02  0.14993603E-02
    5    8    0.93880905E-04  0.56367847E-05
    6    8    0.41266669E-02 -0.70706633E-04
    7    8    0.15760354E-02 -0.29570716E-03
    8    8   -0.26751065E-02 -0.24426329E-10

   -3    1    0
    1    1   -0.44009921E-02 -0.66107971E-09
    2    1    0.15172627E-01 -0.31150648E-02
    3    1   -0.67987042E-03  0.64171426E-05
    4    1    0.32865211E-02 -0.88596428E-03
    5    1    0.60357644E-03  0.77225857E-04
    6    1   -0.73673135E-02 -0.36979289E-03
    7    1    0.13473202E-03 -0.15997910E-04
    8    1   -0.32719772E-02 -0.22048500E-03
    1    2    0.21004856E-03  0.43124703E-04
    2    2   -0.11272716E-02 -0.14608915E-09
    3    2    0.13294048E-03  0.25988533E-04
    4    2   -0.26200105E-03  0.15954829E-04
    5    2   -0.20654139E-02 -0.70687879E-03
    6    2   -0.58918020E-03 -0.15210446E-03
    7    2   -0.79918251E-03 -0.67537075E-04
    8    2   -0.10295082E-01 -0.28467927E-02
    1    3    0.62391371E-02  0.58891949E-04
    2    3   -0.10153939E-01  0.19849976E-02
    3    3   -0.78613339E-02 -0.17272620E-09
    4    3   -0.81661794E-02  0.21189259E-02
    5    3   -0.54067930E-02 -0.74371705E-03
    6    3    0.35669635E-02  0.21280848E-03
    7    3    0.32247889E-02 -0.35207860E-03
    8    3   -0.25581093E-02 -0.19665096E-03
    1    4   -0.29628260E-02 -0.79870359E-03
    2    4   -0.60937445E-01 -0.37108700E-02
    3    4    0.63842424E-02  0.16565560E-02
    4    4   -0.46739855E-02  0.40464523E-09
    5    4    0.32573536E-03  0.13411378E-03
    6    4    0.15072876E-01  0.48859464E-02
    7    4   -0.37674096E-03 -0.55063306E-04
    8    4   -0.30677849E-02 -0.10528486E-02
    1    5    0.25448981E-02 -0.32561220E-03
    2    5    0.26301792E-02 -0.90016740E-03
    3    5   -0.35475374E-02  0.48797138E-03
    4    5   -0.78012542E-02  0.32119550E-02
    5    5   -0.44006334E-02 -0.23472815E-09
    6    5    0.35626987E-02 -0.27524390E-03
    7    5    0.13083531E-02 -0.32773301E-03
    8    5   -0.19016671E-02  0.11418305E-03
    1    6    0.21805105E-02 -0.10944785E-03
    2    6    0.89225955E-02 -0.23034788E-02
    3    6    0.80081322E-03 -0.47777683E-04
    4    6   -0.32379900E-02  0.10496102E-02
    5    6   -0.21379592E-03 -0.16517370E-04
    6    6   -0.11274890E-02  0.21856916E-09
    7    6   -0.13376353E-03  0.22733031E-04
    8    6   -0.35810909E-02 -0.61358671E-04
    1    7   -0.11240048E-02 -0.13346471E-03
    2    7    0.15434112E-01 -0.13043053E-02
    3    7    0.63168612E-02  0.68966652E-03
    4    7    0.63282267E-02 -0.92491127E-03
    5    7    0.19220137E-01  0.48145060E-02
    6    7    0.63841150E-02  0.10849593E-02
    7    7   -0.46744349E-02  0.49686432E-09
    8    7    0.82916041E-02  0.15557301E-02
    1    8    0.12416812E-01 -0.83671375E-03
    2    8   -0.13197315E+00  0.36493169E-01
    3    8    0.18979158E-01 -0.14589996E-02
    4    8   -0.60111042E-02  0.20629807E-02
    5    8    0.15818087E-01  0.94977617E-03
    6    8    0.17852152E-01 -0.30587980E-03
    7    8   -0.64840202E-02  0.12165782E-02
    8    8   -0.78604785E-02 -0.77401252E-10

   -3    1    1
    1    1    0.26011119E-01  0.10121898E-08
    2    1   -0.83670701E-02  0.17178292E-02
    3    1   -0.39093850E-01  0.36900820E-03
    4    1   -0.14133667E-01  0.38100837E-02
    5    1   -0.63171414E-02 -0.80825992E-03
    6    1    0.64675071E-02  0.32462880E-03
    7    1    0.35221464E-02 -0.41822048E-03
    8    1   -0.39605321E-02 -0.26688355E-03
    1    2   -0.25247459E-02 -0.51835142E-03
    2    2    0.11980254E-01  0.48694384E-09
    3    2    0.34572855E-03  0.67586617E-04
    4    2    0.18811028E-02 -0.11455245E-03
    5    2   -0.48771485E-02 -0.16691827E-02
    6    2   -0.53943432E-02 -0.13926167E-02
    7    2    0.66312696E-03  0.56039622E-04
    8    2   -0.60128132E-02 -0.16626613E-02
    1    3   -0.74424283E-02 -0.70249775E-04
    2    3    0.32181777E-02 -0.62912321E-03
    3    3    0.26010595E-01  0.11301001E-09
    4    3    0.38423369E-02 -0.99699356E-03
    5    3    0.35134440E-02  0.48328223E-03
    6    3    0.35669686E-02  0.21280874E-03
    7    3   -0.73987902E-02  0.80779014E-03
    8    3    0.51788501E-02  0.39811694E-03
    1    4   -0.16022789E-01 -0.43193441E-02
    2    4    0.12884580E-01  0.78462662E-03
    3    4    0.55542575E-01  0.14411953E-01
    4    4    0.26010581E-01  0.44952514E-10
    5    4   -0.21228038E-01 -0.87400700E-02
    6    4   -0.64914211E-02 -0.21042263E-02
    7    4    0.57177689E-02  0.83568985E-03
    8    4    0.70397245E-02  0.24159988E-02
    1    5   -0.99498851E-03  0.12730578E-03
    2    5   -0.39850210E-03  0.13638576E-03
    3    5    0.35134269E-02 -0.48328034E-03
    4    5    0.91502172E-03 -0.37673558E-03
    5    5    0.26010611E-01 -0.48037568E-09
    6    5    0.94007261E-04 -0.72628000E-05
    7    5   -0.72196934E-02  0.18084817E-02
    8    5    0.77804266E-03 -0.46716748E-04
    1    6    0.10333864E-01 -0.51869572E-03
    2    6    0.89226328E-02 -0.23034872E-02
    3    6   -0.15462241E-01  0.92249412E-03
    4    6   -0.11131828E-01  0.36084369E-02
    5    6    0.17660756E-01  0.13644195E-02
    6    6    0.11982366E-01  0.10796175E-09
    7    6   -0.27405976E-02  0.46575598E-03
    8    6    0.39689288E-02  0.68004057E-04
    1    7    0.35221456E-02  0.41821991E-03
    2    7    0.27433688E-02 -0.23183667E-03
    3    7   -0.38864639E-01 -0.42431910E-02
    4    7    0.19308855E-02 -0.28221197E-03
    5    7   -0.37923923E-01 -0.94996693E-02
    6    7   -0.72723271E-02 -0.12359087E-02
    7    7    0.26011117E-01 -0.30789617E-09
    8    7   -0.39014313E-02 -0.73201412E-03
    1    8   -0.57254097E-01  0.38581098E-02
    2    8   -0.92828702E-02  0.25668973E-02
    3    8    0.21060561E+00 -0.16190020E-01
    4    8    0.36978479E-01 -0.12690832E-01
    5    8    0.81536445E-01  0.48957494E-02
    6    8    0.17852155E-01 -0.30587976E-03
    7    8   -0.56399779E-01  0.10582132E-01
    8    8    0.26011117E-01 -0.67545379E-09

   -3    1    2
    1    1   -0.46744340E-02  0.31789226E-09
    2    1    0.67733426E-03 -0.13906244E-03
    3    1    0.63541125E-02 -0.59976870E-04
    4    1    0.32862820E-02 -0.88589934E-03
    5    1   -0.87906681E-02 -0.11247396E-02
    6    1    0.13872866E-02  0.69633005E-04
    7    1   -0.11240008E-02  0.13346320E-03
    8    1    0.84172021E-02  0.56719899E-03
    1    2   -0.34997863E-02 -0.71853563E-03
    2    2   -0.11272862E-02  0.68568800E-09
    3    2   -0.63547830E-02 -0.12423002E-02
    4    2    0.35276960E-02 -0.21482355E-03
    5    2    0.69785745E-02  0.23883874E-02
    6    2   -0.53943408E-02 -0.13926164E-02
    7    2   -0.35600921E-02 -0.30085656E-03
    8    2    0.75164651E-03  0.20784527E-03
    1    3    0.32438051E-02  0.30618021E-04
    2    3    0.61129517E-04 -0.11950210E-04
    3    3   -0.78613466E-02  0.11428433E-08
    4    3    0.31739747E-02 -0.82356955E-03
    5    3   -0.27889692E-02 -0.38362803E-03
    6    3    0.90686961E-03  0.54104843E-04
    7    3    0.62025651E-02 -0.67718784E-03
    8    3   -0.25581038E-02 -0.19665075E-03
    1    4   -0.29633882E-02 -0.79885343E-03
    2    4   -0.39143259E-02 -0.23836833E-03
    3    4   -0.12043966E-01 -0.31251200E-02
    4    4   -0.44006270E-02 -0.10556477E-08
    5    4   -0.11505664E-01 -0.47371441E-02
    6    4   -0.71689118E-03 -0.23238412E-03
    7    4    0.13418895E-01  0.19612589E-02
    8    4   -0.59006388E-02 -0.20250700E-02
    1    5    0.27274788E-02 -0.34897301E-03
    2    5    0.10837421E-02 -0.37090601E-03
    3    5   -0.15886430E-02  0.21852130E-03
    4    5   -0.38948676E-03  0.16036078E-03
    5    5   -0.46739743E-02  0.15470706E-10
    6    5    0.68875776E-03 -0.53211505E-04
    7    5    0.13084466E-02 -0.32775646E-03
    8    5   -0.13464479E-02  0.80845327E-04
    1    6   -0.27763937E-02  0.13935744E-03
    2    6    0.11528720E-02 -0.29762807E-03
    3    6   -0.15462232E-01  0.92249184E-03
    4    6    0.49116133E-02 -0.15921239E-02
    5    6   -0.15443743E-01 -0.11931389E-02
    6    6   -0.11274929E-02 -0.50258311E-09
    7    6    0.10200617E-01 -0.17335614E-02
    8    6    0.39689292E-02  0.68003366E-04
    1    7    0.13473305E-03  0.15998135E-04
    2    7    0.33415864E-03 -0.28239106E-04
    3    7   -0.67588532E-03 -0.73792756E-04
    4    7   -0.11781524E-02  0.17219463E-03
    5    7    0.19219613E-01  0.48143744E-02
    6    7   -0.47103710E-03 -0.80051008E-04
    7    7   -0.44009785E-02 -0.13961546E-08
    8    7   -0.32231535E-02 -0.60475177E-03
    1    8   -0.65822284E-02  0.44354830E-03
    2    8   -0.38048794E-03  0.10521240E-03
    3    8    0.18979153E-01 -0.14589991E-02
    4    8    0.64350433E-03 -0.22084730E-03
    5    8   -0.24201252E-01 -0.14531317E-02
    6    8    0.41266737E-02 -0.70707030E-04
    7    8    0.12231509E-01 -0.22949594E-02
    8    8   -0.78604777E-02  0.58457210E-09

   -3    1    3
    1    1   -0.26751054E-02  0.70173860E-10
    2    1    0.12536887E-02 -0.25739268E-03
    3    1    0.46186754E-02 -0.43595853E-04
    4    1    0.66763300E-03 -0.17997730E-03
    5    1    0.31282912E-02  0.40025610E-03
    6    1   -0.62323074E-04 -0.31284401E-05
    7    1   -0.26078884E-03  0.30966125E-04
    8    1   -0.12370907E-02 -0.83362169E-04
    1    2    0.65189061E-03  0.13383909E-03
    2    2    0.68849271E-03  0.37643638E-10
    3    2    0.34570709E-03  0.67581740E-04
    4    2   -0.21789849E-02  0.13269189E-03
    5    2    0.33328035E-03  0.11406388E-03
    6    2   -0.58917717E-03 -0.15210378E-03
    7    2   -0.25682396E-02 -0.21703680E-03
    8    2   -0.60128098E-02 -0.16626600E-02
    1    3    0.46187474E-02  0.43596691E-04
    2    3    0.18945837E-03 -0.37037639E-04
    3    3   -0.26750072E-02 -0.11152281E-09
    4    3    0.25600159E-02 -0.66426217E-03
    5    3    0.68263383E-02  0.93897677E-03
    6    3   -0.69001537E-03 -0.41166712E-04
    7    3   -0.90311767E-03  0.98601340E-04
    8    3    0.10099145E-01  0.77635757E-03
    1    4   -0.77438323E-03 -0.20875390E-03
    2    4    0.26823388E-03  0.16334469E-04
    3    4    0.99534308E-03  0.25826712E-03
    4    4    0.68849153E-03  0.19219755E-09
    5    4    0.25908540E-01  0.10667138E-01
    6    4   -0.26189879E-02 -0.84895767E-03
    7    4   -0.62683648E-02 -0.91616218E-03
    8    4    0.85941691E-03  0.29494777E-03
    1    5   -0.14257645E-03  0.18242283E-04
    2    5   -0.19583880E-02  0.67024990E-03
    3    5    0.14989566E-03 -0.20618680E-04
    4    5   -0.18477675E-02  0.76076835E-03
    5    5   -0.26750022E-02 -0.16622121E-09
    6    5   -0.48108833E-03  0.37167532E-04
    7    5   -0.67010741E-03  0.16785705E-03
    8    5   -0.39411029E-03  0.23663578E-04
    1    6   -0.13550995E-03  0.68018162E-05
    2    6   -0.45778250E-04  0.11818237E-04
    3    6    0.80081716E-03 -0.47778114E-04
    4    6   -0.26189878E-02  0.84895777E-03
    5    6    0.82926892E-02  0.64066914E-03
    6    6    0.68878574E-03 -0.53121292E-11
    7    6    0.21524041E-02 -0.36579445E-03
    8    6   -0.35810861E-02 -0.61358269E-04
    1    7   -0.95289635E-03 -0.11314690E-03
    2    7    0.12752945E-02 -0.10777268E-03
    3    7   -0.68672746E-03 -0.74975948E-04
    4    7    0.19260162E-02 -0.28149997E-03
    5    7   -0.88125703E-03 -0.22074878E-03
    6    7   -0.26501613E-03 -0.45038691E-04
    7    7    0.68878465E-03 -0.17214806E-11
    8    7   -0.26003805E-02 -0.48790273E-03
    1    8    0.15999064E-02 -0.10781113E-03
    2    8    0.20506517E-02 -0.56704557E-03
    3    8    0.27952307E-02 -0.21487978E-03
    4    8    0.65353330E-03 -0.22428933E-03
    5    8   -0.61560622E-02 -0.36963123E-03
    6    8   -0.16032985E-02  0.27471064E-04
    7    8   -0.10106613E-02  0.18962839E-03
    8    8   -0.26751049E-02  0.22402056E-10

   -3    2   -2
    1    1   -0.72340470E-03  0.44103847E-11
    2    1    0.47283464E-03 -0.97076760E-04
    3    1    0.15404452E-02 -0.14540243E-04
    4    1    0.64680226E-03 -0.17436177E-03
    5    1    0.34403388E-03  0.44018190E-04
    6    1    0.20673755E-02  0.10376929E-03
    7    1    0.49489320E-03 -0.58763534E-04
    8    1   -0.31163247E-03 -0.20999362E-04
    1    2    0.47283498E-03  0.97076880E-04
    2    2   -0.72353442E-03 -0.51923643E-10
    3    2    0.11241811E-02  0.21976673E-03
    4    2    0.31187400E-03 -0.18991986E-04
    5    2    0.58926640E-04  0.20167315E-04
    6    2    0.16961046E-02  0.43787069E-03
    7    2    0.33415735E-03  0.28239127E-04
    8    2    0.33231076E-02  0.91890443E-03
    1    3    0.12798130E-02  0.12080049E-04
    2    3    0.26373753E-03 -0.51558394E-04
    3    3   -0.21998906E-02 -0.14318239E-11
    4    3   -0.14445015E-02  0.37481294E-03
    5    3   -0.14784177E-02 -0.20335984E-03
    6    3   -0.12775991E-02 -0.76222790E-04
    7    3    0.86396390E-03 -0.94326481E-04
    8    3   -0.19407464E-02 -0.14919233E-03
    1    4    0.46589084E-03  0.12559249E-03
    2    4   -0.19945578E-02 -0.12146111E-03
    3    4    0.11087402E-02  0.28769112E-03
    4    4   -0.21998919E-02  0.10890678E-09
    5    4    0.24848499E-03  0.10230674E-03
    6    4    0.35047416E-03  0.11360793E-03
    7    4   -0.17332983E-02 -0.25333299E-03
    8    4   -0.82217272E-03 -0.28216559E-03
    1    5    0.34402823E-03 -0.44017300E-04
    2    5    0.58927653E-04 -0.20167821E-04
    3    5    0.49374446E-03 -0.67915860E-04
    4    5   -0.13799491E-02  0.56815688E-03
    5    5   -0.72352445E-03  0.34141550E-10
    6    5   -0.12760658E-02  0.98585104E-04
    7    5    0.14942779E-02 -0.37430609E-03
    8    5   -0.33474574E-03  0.20099335E-04
    1    6    0.20673760E-02 -0.10376925E-03
    2    6    0.16961041E-02 -0.43787041E-03
    3    6   -0.15377793E-02  0.91745589E-04
    4    6   -0.82674656E-03  0.26799400E-03
    5    6   -0.12760677E-02 -0.98585537E-04
    6    6   -0.72340517E-03  0.96933322E-10
    7    6    0.20407178E-02 -0.34681327E-03
    8    6   -0.19975024E-02 -0.34225245E-04
    1    7   -0.14817896E-02 -0.17594797E-03
    2    7    0.68901278E-03 -0.58226978E-04
    3    7    0.86411149E-03  0.94342512E-04
    4    7    0.65859611E-02 -0.96258104E-03
    5    7    0.12414819E-02  0.31098234E-03
    6    7   -0.18994551E-03 -0.32280677E-04
    7    7   -0.21998172E-02  0.13322871E-09
    8    7    0.14666079E-02  0.27517542E-03
    1    8    0.19932763E-02 -0.13431831E-03
    2    8   -0.22114288E-03  0.61150377E-04
    3    8    0.14331492E-03 -0.11017206E-04
    4    8   -0.82203443E-03  0.28211803E-03
    5    8    0.68971122E-03  0.41412719E-04
    6    8   -0.61482098E-03  0.10534340E-04
    7    8   -0.11257922E-02  0.21122928E-03
    8    8   -0.21998161E-02 -0.18299475E-09

   -3    2   -1
    1    1    0.21345332E-02 -0.13455726E-09
    2    1   -0.78564333E-03  0.16129915E-03
    3    1   -0.36841371E-03  0.34774951E-05
    4    1   -0.25400085E-02  0.68472299E-03
    5    1    0.46897655E-04  0.60003474E-05
    6    1   -0.19459069E-03 -0.97670632E-05
    7    1    0.11374459E-02 -0.13506040E-03
    8    1   -0.26820852E-03 -0.18073193E-04
    1    2    0.32849682E-03  0.67443416E-04
    2    2   -0.97449992E-03 -0.67504172E-10
    3    2    0.11241803E-02  0.21976658E-03
    4    2   -0.14895785E-02  0.90709919E-04
    5    2    0.25425314E-03  0.87016950E-04
    6    2   -0.45777508E-04 -0.11818016E-04
    7    2    0.48098381E-03  0.40646979E-04
    8    2    0.33231092E-02  0.91890500E-03
    1    3   -0.26362384E-02 -0.24883526E-04
    2    3   -0.21424657E-02  0.41883101E-03
    3    3    0.21346571E-02 -0.13949251E-09
    4    3    0.16917613E-02 -0.43897106E-03
    5    3    0.61706572E-04  0.84876845E-05
    6    3   -0.83872331E-03 -0.50038968E-04
    7    3   -0.21150404E-02  0.23091746E-03
    8    3   -0.15457525E-02 -0.11882782E-03
    1    4    0.38120623E-03  0.10276361E-03
    2    4    0.10264167E-02  0.62504672E-04
    3    4   -0.59493191E-03 -0.15437039E-03
    4    4    0.33272875E-02 -0.13191971E-09
    5    4    0.17990644E-03  0.74071581E-04
    6    4   -0.35688783E-02 -0.11568696E-02
    7    4   -0.14222719E-03 -0.20787282E-04
    8    4    0.20125636E-02  0.69070191E-03
    1    5    0.75259371E-04 -0.96293294E-05
    2    5   -0.51636584E-02  0.17672397E-02
    3    5    0.61704275E-04 -0.84874770E-05
    4    5    0.11466546E-02 -0.47210384E-03
    5    5    0.21346522E-02  0.18601833E-09
    6    5    0.90578473E-03 -0.69978780E-04
    7    5   -0.20638392E-02  0.51697684E-03
    8    5   -0.83870236E-03  0.50358612E-04
    1    6   -0.26847812E-03  0.13475823E-04
    2    6    0.11528732E-02 -0.29762861E-03
    3    6   -0.48166352E-03  0.28736525E-04
    4    6    0.25024784E-02 -0.81119053E-03
    5    6   -0.33435407E-03 -0.25831328E-04
    6    6   -0.97455727E-03  0.91512062E-10
    7    6   -0.11292453E-02  0.19191166E-03
    8    6   -0.95945132E-03 -0.16439322E-04
    1    7    0.12312430E-02  0.14619827E-03
    2    7   -0.82881117E-02  0.70041177E-03
    3    7   -0.30053153E-02 -0.32811660E-03
    4    7   -0.39308398E-02  0.57451740E-03
    5    7   -0.29325735E-02 -0.73458819E-03
    6    7    0.13693981E-02  0.23272484E-03
    7    7    0.33273499E-02  0.43399132E-10
    8    7   -0.17179843E-02 -0.32234042E-03
    1    8    0.12589386E-02 -0.84834493E-04
    2    8   -0.72631789E-03  0.20083974E-03
    3    8   -0.23281735E-02  0.17897534E-03
    4    8    0.28592190E-02 -0.98126996E-03
    5    8   -0.37458547E-02 -0.22491455E-03
    6    8   -0.75991520E-02  0.13020423E-03
    7    8    0.60436447E-03 -0.11339536E-03
    8    8    0.21345337E-02  0.22436836E-09

   -3    2    0
    1    1   -0.78604806E-02 -0.13156070E-09
    2    1   -0.81476865E-02  0.16727871E-02
    3    1   -0.68031347E-03  0.64215829E-05
    4    1    0.22348524E-02 -0.60246052E-03
    5    1   -0.10302643E-02 -0.13181921E-03
    6    1   -0.35103403E-03 -0.17619677E-04
    7    1   -0.15923495E-02  0.18907583E-03
    8    1    0.11029734E-02  0.74324434E-04
    1    2    0.82340343E-03  0.16905156E-03
    2    2   -0.11272813E-02 -0.11465019E-09
    3    2    0.19094038E-03  0.37327605E-04
    4    2    0.17445516E-02 -0.10623662E-03
    5    2    0.45268832E-03  0.15493059E-03
    6    2    0.38913850E-02  0.10046098E-02
    7    2   -0.68850294E-03 -0.58184077E-04
    8    2    0.25409988E-02  0.70263619E-03
    1    3    0.62381838E-02  0.58882430E-04
    2    3   -0.21424789E-02  0.41883408E-03
    3    3   -0.44006284E-02  0.69223249E-09
    4    3    0.18241776E-02 -0.47332911E-03
    5    3   -0.35475343E-02 -0.48797110E-03
    6    3    0.25722425E-02  0.15346269E-03
    7    3    0.13408152E-02 -0.14638850E-03
    8    3    0.21431753E-02  0.16475408E-03
    1    4    0.59539761E-02  0.16050436E-02
    2    4    0.27966754E-01  0.17030744E-02
    3    4    0.39956092E-02  0.10367633E-02
    4    4   -0.46739698E-02 -0.61811874E-09
    5    4    0.38170250E-02  0.15715569E-02
    6    4    0.15072913E-01  0.48859587E-02
    7    4   -0.27740036E-02 -0.40543868E-03
    8    4   -0.12758321E-02 -0.43785918E-03
    1    5   -0.27200891E-02  0.34802766E-03
    2    5    0.12815907E-03 -0.43861588E-04
    3    5   -0.54067903E-02  0.74371607E-03
    4    5   -0.26032146E-02  0.10718022E-02
    5    5   -0.78613473E-02  0.45603968E-09
    6    5   -0.66372052E-03  0.51276989E-04
    7    5    0.31467249E-02 -0.78823210E-03
    8    5    0.35668887E-02 -0.21416829E-03
    1    6   -0.32752679E-02  0.16439839E-03
    2    6   -0.19564594E-01  0.50508423E-02
    3    6   -0.27485748E-02  0.16398292E-03
    4    6   -0.32379787E-02  0.10496067E-02
    5    6   -0.27452838E-02 -0.21209251E-03
    6    6   -0.11274915E-02  0.33226254E-09
    7    6    0.41547017E-03 -0.70607783E-04
    8    6   -0.11053040E-02 -0.18938528E-04
    1    7   -0.27952736E-02 -0.33191170E-03
    2    7   -0.79917834E-03  0.67536814E-04
    3    7    0.19696852E-01  0.21504771E-02
    4    7   -0.21063649E-02  0.30785946E-03
    5    7    0.61639671E-02  0.15440288E-02
    6    7   -0.34650714E-03 -0.58887917E-04
    7    7   -0.46744358E-02 -0.41569620E-09
    8    7   -0.18520185E-02 -0.34748929E-03
    1    8    0.22903080E-01 -0.15433389E-02
    2    8   -0.72634292E-03  0.20084775E-03
    3    8   -0.67582727E-02  0.51953278E-03
    4    8   -0.18740450E-01  0.64316309E-02
    5    8    0.84497797E-02  0.50735451E-03
    6    8    0.49355278E-01 -0.84565724E-03
    7    8   -0.40564953E-02  0.76110893E-03
    8    8   -0.44009896E-02  0.59677385E-09

   -3    2    1
    1    1   -0.46744346E-02 -0.28325929E-09
    2    1    0.67733082E-03 -0.13906132E-03
    3    1    0.19813023E-01 -0.18701600E-03
    4    1    0.22358502E-02 -0.60272908E-03
    5    1   -0.87905943E-02 -0.11247319E-02
    6    1    0.13872855E-02  0.69633250E-04
    7    1   -0.27952740E-02  0.33191128E-03
    8    1   -0.18800698E-02 -0.12669016E-03
    1    2   -0.34997813E-02 -0.71853400E-03
    2    2   -0.11272831E-02 -0.26901640E-09
    3    2    0.72389417E-02  0.14151435E-02
    4    2    0.18810983E-02 -0.11455222E-03
    5    2    0.69785640E-02  0.23883834E-02
    6    2   -0.53943411E-02 -0.13926166E-02
    7    2   -0.93718066E-04 -0.79195253E-05
    8    2   -0.18361872E-02 -0.50774199E-03
    1    3    0.13487181E-02  0.12730469E-04
    2    3    0.26373505E-03 -0.51557988E-04
    3    3   -0.44006219E-02  0.40360668E-09
    4    3   -0.10704094E-02  0.27774528E-03
    5    3   -0.11209938E-02 -0.15419587E-03
    6    3   -0.83872519E-03 -0.50039239E-04
    7    3    0.62016021E-02 -0.67708321E-03
    8    3    0.21431779E-02  0.16475402E-03
    1    4    0.59545825E-02  0.16052066E-02
    2    4    0.26399197E-02  0.16076096E-03
    3    4   -0.22221057E-01 -0.57658269E-02
    4    4   -0.78613294E-02  0.65193201E-09
    5    4    0.53060588E-01  0.21846263E-01
    6    4   -0.43778676E-02 -0.14191084E-02
    7    4    0.57177422E-02  0.83568495E-03
    8    4   -0.59015300E-02 -0.20253760E-02
    1    5    0.27274748E-02 -0.34897232E-03
    2    5    0.10837472E-02 -0.37090772E-03
    3    5    0.13419143E-03 -0.18458705E-04
    4    5   -0.14828383E-02  0.61051854E-03
    5    5   -0.46739806E-02 -0.32189664E-09
    6    5    0.68875658E-03 -0.53211176E-04
    7    5    0.31462186E-02 -0.78810546E-03
    8    5    0.94118143E-04 -0.56513569E-05
    1    6   -0.27763930E-02  0.13935725E-03
    2    6    0.11528698E-02 -0.29762765E-03
    3    6    0.17681899E-01 -0.10549201E-02
    4    6   -0.45988140E-03  0.14907305E-03
    5    6   -0.15443710E-01 -0.11931378E-02
    6    6   -0.11274919E-02 -0.32645531E-09
    7    6   -0.27405930E-02  0.46575495E-03
    8    6    0.35341112E-02  0.60553891E-04
    1    7   -0.15923452E-02 -0.18907524E-03
    2    7    0.48098495E-03 -0.40647056E-04
    3    7   -0.67631944E-03 -0.73839635E-04
    4    7    0.55419639E-02 -0.80999423E-03
    5    7    0.61647218E-02  0.15442170E-02
    6    7   -0.19208161E-03 -0.32643634E-04
    7    7   -0.78604856E-02  0.11839204E-08
    8    7    0.10865122E-02  0.20385918E-03
    1    8   -0.41179387E-02  0.27749100E-03
    2    8   -0.22113989E-03  0.61149427E-04
    3    8   -0.67582976E-02  0.51953520E-03
    4    8    0.64308010E-03 -0.22070196E-03
    5    8    0.81533494E-01  0.48955610E-02
    6    8   -0.75991546E-02  0.13020453E-03
    7    8    0.22561330E-01 -0.42331187E-02
    8    8   -0.44009887E-02 -0.52895211E-09

   -3    2    2
    1    1    0.33273511E-02  0.13597107E-09
    2    1    0.65613122E-03 -0.13470911E-03
    3    1   -0.30230443E-02  0.28534441E-04
    4    1   -0.25402252E-02  0.68478139E-03
    5    1    0.76523022E-02  0.97908956E-03
    6    1   -0.19242708E-03 -0.96584226E-05
    7    1    0.12312427E-02 -0.14619773E-03
    8    1   -0.17440067E-02 -0.11752130E-03
    1    2   -0.92136958E-04 -0.18916311E-04
    2    2   -0.97450083E-03  0.13473967E-09
    3    2    0.72389480E-02  0.14151448E-02
    4    2   -0.11038110E-02  0.67217984E-04
    5    2   -0.61262097E-02 -0.20966683E-02
    6    2    0.38913910E-02  0.10046110E-02
    7    2   -0.35601018E-02 -0.30085696E-03
    8    2   -0.18361848E-02 -0.50774103E-03
    1    3   -0.21275114E-02 -0.20081864E-04
    2    3    0.48913466E-03 -0.95621374E-04
    3    3    0.21346559E-02  0.74717555E-10
    4    3    0.26011815E-03 -0.67494491E-04
    5    3    0.12284639E-02  0.16897798E-03
    6    3   -0.12775986E-02 -0.76222993E-04
    7    3   -0.26207823E-02  0.28613383E-03
    8    3   -0.15457571E-02 -0.11882791E-03
    1    4    0.38117086E-03  0.10275408E-03
    2    4    0.31187699E-03  0.18992296E-04
    3    4   -0.12204208E-02 -0.31666874E-03
    4    4    0.21346581E-02 -0.23834688E-10
    5    4   -0.10973360E-01 -0.45179873E-02
    6    4   -0.21825806E-03 -0.70749442E-04
    7    4   -0.10022456E-01 -0.14648469E-02
    8    4    0.24935912E-02  0.85578851E-03
    1    5   -0.36222057E-02  0.46345057E-03
    2    5   -0.14331168E-02  0.49047813E-03
    3    5    0.11347775E-02 -0.15609129E-03
    4    5    0.10592003E-02 -0.43609696E-03
    5    5    0.33272838E-02  0.38630252E-10
    6    5   -0.15359345E-02  0.11866191E-03
    7    5   -0.20640181E-02  0.51702165E-03
    8    5    0.68956803E-03 -0.41404287E-04
    1    6    0.42089948E-03 -0.21126470E-04
    2    6    0.16961056E-02 -0.43787078E-03
    3    6   -0.27485757E-02  0.16398257E-03
    4    6    0.74741764E-03 -0.24227926E-03
    5    6    0.85176665E-02  0.65805028E-03
    6    6   -0.97455660E-03 -0.63896458E-11
    7    6   -0.32330386E-02  0.54944457E-03
    8    6   -0.11053088E-02 -0.18938514E-04
    1    7    0.11374459E-02  0.13506049E-03
    2    7   -0.10012627E-02  0.84614630E-04
    3    7   -0.36625240E-03 -0.39987051E-04
    4    7   -0.17332970E-02  0.25333260E-03
    5    7   -0.29323246E-02 -0.73452593E-03
    6    7    0.20407182E-02  0.34681343E-03
    7    7    0.21345338E-02 -0.23878096E-09
    8    7   -0.26420413E-03 -0.49571982E-04
    1    8    0.61351776E-03 -0.41342292E-04
    2    8   -0.83766270E-03  0.23163017E-03
    3    8   -0.23281671E-02  0.17897498E-03
    4    8    0.34847981E-03 -0.11959674E-03
    5    8   -0.79162427E-02 -0.47531944E-03
    6    8   -0.61482012E-03  0.10534404E-04
    7    8    0.12401539E-02 -0.23268666E-03
    8    8    0.21345339E-02  0.75977051E-10

   -3    2    3
    1    1   -0.21998170E-02  0.47678028E-10
    2    1   -0.98429663E-03  0.20208431E-03
    3    1    0.86920576E-03 -0.82045703E-05
    4    1    0.64673166E-03 -0.17434265E-03
    5    1   -0.11641001E-02 -0.14894319E-03
    6    1   -0.49774332E-03 -0.24983650E-04
    7    1   -0.14817902E-02  0.17594803E-03
    8    1    0.14888233E-02  0.10032560E-03
    1    2   -0.67683578E-03 -0.13896013E-03
    2    2   -0.72352609E-03  0.13207885E-09
    3    2    0.19094014E-03  0.37327245E-04
    4    2    0.26823464E-03 -0.16334325E-04
    5    2   -0.13146538E-02 -0.44993488E-03
    6    2   -0.45776040E-04 -0.11817741E-04
    7    2    0.83758789E-03  0.70783200E-04
    8    2    0.25409991E-02  0.70263623E-03
    1    3    0.86905994E-03  0.82030533E-05
    2    3    0.48913060E-03 -0.95620386E-04
    3    3   -0.21998924E-02  0.99644366E-10
    4    3    0.30243326E-03 -0.78474086E-04
    5    3   -0.98414993E-03 -0.13537186E-03
    6    3   -0.66869928E-03 -0.39895242E-04
    7    3    0.12723081E-02 -0.13890896E-03
    8    3   -0.19407498E-02 -0.14919255E-03
    1    4    0.46606087E-03  0.12563841E-03
    2    4    0.49746730E-03  0.30293993E-04
    3    4   -0.19341988E-02 -0.50187763E-03
    4    4   -0.72353367E-03 -0.44183546E-10
    5    4    0.24456361E-02  0.10069245E-02
    6    4   -0.45917608E-03 -0.14884437E-03
    7    4    0.19260123E-02  0.28149900E-03
    8    4   -0.12105355E-02 -0.41544981E-03
    1    5    0.12049796E-02 -0.15417354E-03
    2    5    0.47154032E-03 -0.16138257E-03
    3    5   -0.15005955E-02  0.20641017E-03
    4    5    0.46085635E-03 -0.18974519E-03
    5    5   -0.21998919E-02 -0.36359925E-10
    6    5    0.10018421E-02 -0.77399417E-04
    7    5    0.14943466E-02 -0.37432295E-03
    8    5   -0.48165272E-03  0.28920143E-04
    1    6   -0.11439960E-02  0.57421458E-04
    2    6   -0.11762343E-02  0.30365967E-03
    3    6   -0.48166436E-03  0.28736647E-04
    4    6   -0.45917474E-03  0.14884377E-03
    5    6   -0.68919404E-03 -0.53244841E-04
    6    6   -0.72340575E-03  0.19858625E-10
    7    6   -0.26501463E-03  0.45038204E-04
    8    6   -0.95944874E-03 -0.16439221E-04
    1    7    0.49489260E-03  0.58763705E-04
    2    7    0.66743868E-03 -0.56403911E-04
    3    7    0.15314122E-02  0.16719756E-03
    4    7   -0.12209164E-02  0.17844509E-03
    5    7    0.12415117E-02  0.31098975E-03
    6    7   -0.49132467E-03 -0.83498974E-04
    7    7   -0.72340481E-03  0.14889489E-10
    8    7   -0.30697816E-03 -0.57597489E-04
    1    8   -0.11428447E-02  0.77011421E-04
    2    8   -0.83766223E-03  0.23162995E-03
    3    8    0.14331493E-03 -0.11016960E-04
    4    8   -0.14570302E-02  0.50004561E-03
    5    8   -0.39406855E-03 -0.23661215E-04
    6    8    0.15121879E-03 -0.25910320E-05
    7    8    0.19635351E-02 -0.36841266E-03
    8    8   -0.21998170E-02 -0.26001371E-10

   -3    3   -3
    1    1    0.37998892E-02  0.10219785E-14
[...]
    2    2   -0.26242993E-03  0.41715148E-10 -0.29147433E-04 -0.22161532E-09  0.29147323E-04 -0.13557717E-09
    3    2    0.27401830E-02  0.53567954E-03 -0.63388312E-03 -0.12391748E-03  0.10052207E-02  0.19651104E-03
    4    2   -0.52063519E-04  0.31706215E-05  0.12038902E-02 -0.73312257E-04 -0.21078127E-02  0.12835785E-03
    5    2    0.76126223E-03  0.26053859E-03  0.53844311E-03  0.18427967E-03  0.57270369E-03  0.19600560E-03
    6    2    0.85087807E-03  0.21966471E-03 -0.13747954E-02 -0.35492028E-03  0.17547856E-02  0.45301939E-03
    7    2   -0.13088551E-02 -0.11060890E-03 -0.23285844E-04 -0.19678718E-05 -0.39114381E-03 -0.33054578E-04
    8    2    0.27679505E-03  0.76539331E-04 -0.53813081E-03 -0.14880356E-03 -0.38870190E-03 -0.10748371E-03
    1    3    0.24145996E-02  0.22791666E-04 -0.89748669E-03 -0.84711989E-05 -0.79900223E-03 -0.75418935E-05
    2    3    0.23453390E-02 -0.45849128E-03  0.74507812E-03 -0.14565536E-03 -0.13860767E-02  0.27096513E-03
    3    3   -0.11732775E-02 -0.11036624E-09  0.21963899E-03 -0.10411838E-09  0.21963893E-03 -0.11868185E-09
    4    3    0.62559083E-03 -0.16232570E-03  0.13519812E-02 -0.35080620E-03 -0.71723601E-03  0.18610602E-03
    5    3    0.10832723E-02  0.14900650E-03  0.18637293E-02  0.25636019E-03  0.18277644E-02  0.25141299E-03
    6    3    0.54896737E-03  0.32752163E-04 -0.81503907E-03 -0.48625816E-04 -0.75623485E-03 -0.45117841E-04
    7    3    0.78864493E-04 -0.86102147E-05 -0.64728272E-03  0.70669258E-04 -0.23671978E-03  0.25844779E-04
    8    3   -0.10044134E-02 -0.77213037E-04 -0.33414995E-02 -0.25687343E-03  0.37248742E-02  0.28634513E-03
    1    4   -0.16202281E-02 -0.43677317E-03  0.13268467E-02  0.35768453E-03  0.12396451E-02  0.33417732E-03
    2    4    0.18222994E-03  0.11097303E-04  0.31817793E-03  0.19375562E-04  0.62759138E-03  0.38218162E-04
    3    4    0.17672450E-02  0.45855716E-03 -0.22686097E-02 -0.58864911E-03  0.13675070E-02  0.35483525E-03
    4    4   -0.26243155E-03 -0.88581443E-10  0.29146903E-04 -0.11570676E-09 -0.29146687E-04 -0.72379286E-10
    5    4   -0.22457291E-03 -0.92462017E-04 -0.53625765E-03 -0.22078942E-03 -0.77691514E-03 -0.31987387E-03
    6    4   -0.47815925E-03 -0.15499766E-03 -0.85313169E-03 -0.27654677E-03  0.85313146E-03  0.27654679E-03
    7    4   -0.33181169E-02 -0.48496476E-03  0.44407115E-02  0.64903905E-03 -0.50422234E-02 -0.73695383E-03
    8    4    0.12036860E-04  0.41312803E-05 -0.13817882E-03 -0.47422256E-04 -0.74341238E-03 -0.25513501E-03
    1    5   -0.37766920E-03  0.48321693E-04 -0.19023885E-02  0.24340483E-03  0.15961643E-02 -0.20422449E-03
    2    5   -0.38631696E-03  0.13221526E-03 -0.80417128E-03  0.27522406E-03  0.14363730E-02 -0.49159267E-03
    3    5    0.61000964E-03 -0.83908239E-04 -0.27385805E-03  0.37669749E-04 -0.30983277E-03  0.42618066E-04
    4    5    0.25710216E-03 -0.10585492E-03  0.29219276E-02 -0.12030247E-02 -0.44713707E-03  0.18409652E-03
    5    5   -0.11732766E-02  0.16608728E-09 -0.21963833E-03 -0.71797310E-10 -0.21963843E-03  0.12247514E-09
    6    5   -0.50124602E-03  0.38724670E-04 -0.18785750E-02  0.14513307E-03  0.76485148E-03 -0.59090417E-04
    7    5   -0.36354530E-03  0.91065369E-04 -0.25293272E-04  0.63358781E-05  0.37533941E-03 -0.94019906E-04
    8    5    0.33026629E-02 -0.19830377E-03  0.48112153E-02 -0.28888264E-03 -0.26990560E-02  0.16206071E-03
    1    6    0.78337365E-03 -0.39320282E-04 -0.33479256E-02  0.16804490E-03  0.21138265E-02 -0.10610079E-03
    2    6    0.60539175E-03 -0.15628968E-03  0.60538922E-03 -0.15628874E-03 -0.16852896E-02  0.43507819E-03
    3    6    0.52921159E-03 -0.31573189E-04  0.74406654E-03 -0.44391541E-04  0.35442583E-03 -0.21145806E-04
    4    6    0.84716482E-03 -0.27461291E-03  0.33373691E-02 -0.10818247E-02 -0.33373694E-02  0.10818245E-02
    5    6    0.61645088E-03  0.47625468E-04  0.47872937E-03  0.36985351E-04  0.32816806E-03  0.25353433E-04
    6    6    0.26238788E-03  0.20703509E-09  0.29154593E-04 -0.10151116E-09 -0.29154611E-04 -0.97945384E-10
    7    6   -0.64849766E-03  0.11021031E-03  0.12244989E-02 -0.20809939E-03 -0.15728146E-02  0.26729457E-03
    8    6    0.68033188E-03  0.11656651E-04  0.18493795E-03  0.31685875E-05  0.78846255E-03  0.13509259E-04
    1    7   -0.10306994E-02 -0.12238544E-03 -0.60778855E-03 -0.72168758E-04 -0.96458571E-03 -0.11453500E-03
    2    7   -0.71745913E-03  0.60630896E-04 -0.12245158E-02  0.10348162E-03  0.16732881E-03 -0.14140838E-04
    3    7    0.81801342E-03  0.89309921E-04  0.26701991E-04  0.29153397E-05  0.62606963E-03  0.68353473E-04
    4    7   -0.10710174E-02  0.15653626E-03 -0.13691093E-02  0.20010447E-03  0.13811493E-02 -0.20186393E-03
    5    7    0.11648254E-02  0.29178031E-03 -0.11648264E-02 -0.29178086E-03 -0.57997416E-03 -0.14527929E-03
    6    7    0.11706780E-02  0.19895315E-03  0.69574240E-03  0.11823947E-03  0.81022077E-03  0.13769425E-03
    7    7    0.26238798E-03 -0.11518346E-10 -0.29153976E-04 -0.23708842E-09  0.29154981E-04 -0.91238917E-10
    8    7   -0.11392649E-03 -0.21375712E-04 -0.88394806E-03 -0.16585272E-03  0.13207898E-02  0.24781599E-03
    1    8   -0.67087959E-03  0.45207909E-04 -0.73730701E-03  0.49683813E-04  0.18672892E-03 -0.12582936E-04
    2    8    0.82957715E-03 -0.22939423E-03 -0.27969244E-03  0.77340427E-04 -0.40992989E-03  0.11335373E-03
    3    8    0.14746200E-02 -0.11335964E-03 -0.99631258E-03  0.76590028E-04  0.12044145E-02 -0.92587954E-04
    4    8   -0.73811319E-04  0.25331672E-04  0.95468362E-03 -0.32764258E-03  0.52583359E-03 -0.18046347E-03
    5    8    0.60362309E-04  0.36241383E-05 -0.69002504E-03 -0.41431736E-04 -0.44998180E-03 -0.27018664E-04
    6    8    0.51340865E-03 -0.87965775E-05 -0.13139427E-02  0.22513034E-04  0.15715898E-03 -0.26927816E-05
    7    8   -0.21849909E-02  0.40996365E-03  0.16972641E-02 -0.31845290E-03 -0.19615928E-02  0.36804830E-03
    8    8    0.11731890E-02  0.28004242E-10 -0.21961133E-03 -0.12668323E-09 -0.21961119E-03  0.13411744E-11

    4   -1   -1
    1    1   -0.29154524E-04 -0.13420718E-10  0.26238791E-03 -0.14438160E-09  0.29154655E-04 -0.86326905E-10
    2    1    0.34366477E-02 -0.70557196E-03 -0.87236642E-03  0.17910413E-03 -0.34366478E-02  0.70557230E-03
    3    1    0.15549075E-03 -0.14677789E-05  0.69420841E-03 -0.65524519E-05  0.69420766E-03 -0.65524200E-05
    4    1    0.71969203E-03 -0.19401128E-03 -0.51188483E-03  0.13799114E-03  0.34282439E-03 -0.92416349E-04
    5    1   -0.46137211E-03 -0.59031477E-04  0.46137197E-03  0.59031187E-04  0.46137336E-03  0.59031155E-04
    6    1   -0.64766510E-03 -0.32508650E-04 -0.57389586E-03 -0.28805958E-04  0.64766480E-03  0.32508758E-04
    7    1   -0.69905656E-03  0.83005951E-04 -0.93943070E-03  0.11154822E-03 -0.11809196E-02  0.14022266E-03
    8    1    0.36047227E-03  0.24290504E-04 -0.13734618E-02 -0.92551861E-04  0.20787757E-02  0.14008010E-03
    1    2   -0.87850996E-03 -0.18036552E-03  0.49238372E-03  0.10109022E-03  0.87851001E-03  0.18036551E-03
    2    2   -0.29146856E-04  0.65697374E-10 -0.26243183E-03 -0.18609472E-09  0.29146685E-04 -0.14922022E-09
    3    2   -0.42689246E-03 -0.83453391E-04 -0.83966730E-04 -0.16414313E-04  0.49705352E-04  0.97166723E-05
    4    2    0.23394064E-02 -0.14246103E-03  0.18223908E-02 -0.11097684E-03 -0.14101837E-02  0.85874711E-04
    5    2   -0.12467225E-02 -0.42668558E-03 -0.15677583E-02 -0.53655849E-03  0.12467266E-02  0.42668697E-03
    6    2   -0.15038219E-02 -0.38823068E-03 -0.19399039E-02 -0.50081042E-03  0.15038211E-02  0.38823002E-03
    7    2    0.23767551E-02  0.20085492E-03 -0.16797203E-05 -0.14152342E-06 -0.49802874E-03 -0.42087380E-04
    8    2    0.21404622E-02  0.59188033E-03  0.15371876E-03  0.42506403E-04 -0.29682907E-03 -0.82078673E-04
    1    3   -0.64923066E-04 -0.61276036E-06 -0.50684971E-03 -0.47840945E-05 -0.10602089E-03 -0.10007624E-05
    2    3    0.10420947E-02 -0.20371957E-03  0.22164122E-03 -0.43328581E-04  0.17777737E-02 -0.34753772E-03
    3    3    0.21963829E-03  0.97547083E-10 -0.11732763E-02  0.64578663E-10  0.21963899E-03  0.43753098E-11
    4    3   -0.11491862E-02  0.29818592E-03 -0.10307419E-02  0.26745269E-03 -0.26150937E-03  0.67855263E-04
    5    3    0.50172181E-04  0.69015566E-05  0.84757427E-04  0.11658559E-04  0.43091677E-03  0.59273923E-04
    6    3    0.10583630E-03  0.63142191E-05  0.50597040E-03  0.30187019E-04  0.64810593E-04  0.38666528E-05
    7    3    0.24816365E-03 -0.27094321E-04  0.12600614E-02 -0.13757206E-03 -0.11725002E-02  0.12801189E-03
    8    3   -0.27128491E-02 -0.20854647E-03 -0.16330787E-02 -0.12554057E-03  0.29015897E-02  0.22305556E-03
    1    4   -0.78834329E-03 -0.21251795E-03 -0.53099263E-03 -0.14314208E-03 -0.73146990E-03 -0.19718602E-03
    2    4   -0.13941690E-02 -0.84900154E-04  0.64510958E-03  0.39284793E-04  0.73961816E-03  0.45040138E-04
    3    4   -0.82813364E-04 -0.21488203E-04  0.49021017E-04  0.12719669E-04 -0.42103104E-03 -0.10924705E-03
    4    4   -0.21963919E-03  0.59502136E-10 -0.11732776E-02 -0.16147868E-09 -0.21963837E-03  0.63656766E-10
    5    4   -0.79112889E-04 -0.32572627E-04  0.40221673E-03  0.16560193E-03 -0.46833515E-04 -0.19282161E-04
    6    4    0.12057807E-02  0.39085948E-03 -0.23746916E-03 -0.76976753E-04 -0.11219904E-02 -0.36369838E-03
    7    4    0.19824441E-02  0.28974715E-03 -0.15367977E-02 -0.22461302E-03  0.15368007E-02  0.22461310E-03
    8    4   -0.16641299E-02 -0.57112115E-03 -0.17474424E-02 -0.59971366E-03  0.59439833E-04  0.20399554E-04
    1    5    0.39077374E-02 -0.49998321E-03  0.28573370E-02 -0.36558796E-03 -0.39077395E-02  0.49998370E-03
    2    5   -0.37154004E-02  0.12715798E-02 -0.31403453E-03  0.10747702E-03  0.37153987E-02 -0.12715791E-02
    3    5    0.48167562E-03 -0.66255943E-04  0.38208213E-03 -0.52556357E-04 -0.43303486E-03  0.59564860E-04
    4    5   -0.32678862E-02  0.13454637E-02 -0.30284588E-02  0.12468862E-02  0.30805440E-02 -0.12683307E-02
    5    5    0.29147504E-04  0.91017254E-13 -0.26243013E-03 -0.57675941E-10 -0.29147302E-04 -0.55442282E-10
    6    5    0.70794370E-02 -0.54693738E-03  0.28790488E-02 -0.22242722E-03 -0.70794358E-02  0.54693720E-03
    7    5   -0.10041650E-02  0.25153610E-03 -0.26160694E-03  0.65530433E-04 -0.27967880E-04  0.70059044E-05
    8    5    0.93990014E-03 -0.56435419E-04  0.62492582E-03 -0.37522684E-04 -0.37477711E-03  0.22503129E-04
    1    6    0.64766476E-03 -0.32508870E-04 -0.57389662E-03  0.28805796E-04 -0.64766478E-03  0.32508644E-04
    2    6    0.20260905E-02 -0.52306048E-03 -0.21404736E-02  0.55258998E-03 -0.20260900E-02  0.52305980E-03
    3    6   -0.69300653E-03  0.41345950E-04 -0.69300782E-03  0.41345787E-04 -0.15522015E-03  0.92605771E-05
    4    6    0.12718615E-03 -0.41228158E-04 -0.51353623E-03  0.16646529E-03 -0.65882298E-04  0.21356236E-04
    5    6   -0.69217833E-03 -0.53475684E-04  0.15503381E-03  0.11977473E-04  0.69217566E-03  0.53475444E-04
    6    6    0.29154551E-04 -0.15620777E-09  0.26238801E-03 -0.12070757E-09 -0.29154555E-04 -0.30084782E-09
    7    6   -0.56649593E-03  0.96274086E-04  0.63931341E-03 -0.10864912E-03 -0.63931432E-03  0.10864952E-03
    8    6    0.35128333E-03  0.60192817E-05  0.35128346E-03  0.60190956E-05  0.36442775E-02  0.62441367E-04
    1    7   -0.99519851E-03 -0.11817001E-03 -0.17168066E-02 -0.20385381E-03  0.44332854E-03  0.52640907E-04
    2    7   -0.11161517E-02  0.94323615E-04  0.97915145E-03 -0.82746121E-04  0.52844428E-03 -0.44657616E-04
    3    7   -0.63948346E-03 -0.69817645E-04  0.58536396E-03  0.63909361E-04  0.50461683E-03  0.55093397E-04
    4    7    0.48563288E-03 -0.70978256E-04  0.10514416E-02 -0.15367514E-03 -0.81051162E-03  0.11846153E-03
    5    7    0.68916940E-03  0.17263193E-03 -0.68916868E-03 -0.17263160E-03  0.37504407E-03  0.93945778E-04
    6    7   -0.47549948E-03 -0.80809501E-04 -0.19378016E-02 -0.32932305E-03  0.37273257E-03  0.63344761E-04
    7    7    0.21961187E-03  0.32966043E-09  0.11731890E-02 -0.13459300E-10  0.21961103E-03  0.15392071E-09
    8    7    0.39140542E-03  0.73438388E-04  0.13777469E-03  0.25850274E-04 -0.13637890E-02 -0.25588369E-03
    1    8    0.41290204E-03 -0.27823872E-04 -0.90801662E-03  0.61187422E-04 -0.99040668E-03  0.66739426E-04
    2    8    0.19399878E-02 -0.53644472E-03 -0.28632233E-02  0.79173776E-03 -0.18955156E-02  0.52414726E-03
    3    8   -0.72239808E-03  0.55533525E-04  0.12007050E-02 -0.92302573E-04 -0.13104849E-03  0.10074306E-04
    4    8    0.76083012E-03 -0.26111302E-03 -0.27625181E-03  0.94808443E-04 -0.40050367E-03  0.13745100E-03
    5    8    0.16749367E-02  0.10056937E-03 -0.14498015E-03 -0.87054891E-05  0.78483020E-04  0.47125467E-05
    6    8   -0.12448103E-02  0.21328511E-04  0.17110797E-02 -0.29317735E-04 -0.49280072E-03  0.84436575E-05
    7    8   -0.51390995E-03  0.96423520E-04 -0.87326433E-03  0.16384818E-03  0.27599770E-03 -0.51784897E-04
    8    8   -0.21961085E-03  0.65279174E-10  0.11731892E-02  0.11717270E-10 -0.21961162E-03  0.55372968E-10

    4    0   -2
    1    1   -0.56483744E-03  0.94770783E-10 -0.10092323E-02  0.12451423E-09 -0.10092320E-02  0.13555279E-10
    2    1   -0.67726040E-03  0.13904723E-03 -0.27248160E-03  0.55942675E-04 -0.26378963E-03  0.54158143E-04
    3    1    0.48012856E-03 -0.45321470E-05  0.32912783E-03 -0.31067100E-05 -0.61825693E-03  0.58357281E-05
    4    1   -0.17890212E-02  0.48227549E-03 -0.98238211E-04  0.26482477E-04  0.13707082E-02 -0.36950879E-03
    5    1   -0.79853426E-03 -0.10217053E-03  0.18666773E-02  0.23883578E-03 -0.16475795E-02 -0.21080272E-03
    6    1    0.59305658E-04  0.29770457E-05 -0.20262101E-02 -0.10170316E-03  0.92988856E-03  0.46674371E-04
    7    1    0.60905027E-04 -0.72316017E-05  0.47059244E-04 -0.55875210E-05  0.46673045E-03 -0.55419574E-04
    8    1    0.79316040E-03  0.53447809E-04  0.50498577E-03  0.34028738E-04  0.55125948E-03  0.37146844E-04
    1    2   -0.19575263E-03 -0.40189668E-04  0.40181895E-04  0.82498365E-05 -0.75527272E-03 -0.15506386E-03
    2    2    0.10092930E-02 -0.21549053E-09  0.10092925E-02 -0.14654612E-09  0.56483396E-03 -0.27366266E-09
    3    2   -0.29052577E-03 -0.56795031E-04 -0.58862901E-03 -0.11507148E-03  0.10661389E-04  0.20841083E-05
    4    2    0.21509881E-04 -0.13099128E-05  0.23852620E-02 -0.14525421E-03 -0.92644164E-03  0.56417145E-04
    5    2   -0.37013050E-03 -0.12667575E-03 -0.31468291E-03 -0.10769868E-03  0.26305334E-03  0.90028886E-04
    6    2    0.11805582E-02  0.30477581E-03 -0.22345468E-02 -0.57687634E-03  0.89503451E-03  0.23106426E-03
    7    2    0.13297564E-02  0.11237507E-03 -0.87861015E-02 -0.74249600E-03  0.10247381E-01  0.86598598E-03
    8    2    0.62307610E-03  0.17229257E-03  0.32009673E-02  0.88512971E-03 -0.22792088E-02 -0.63024564E-03
    1    3    0.37221484E-03  0.35133838E-05 -0.83516884E-03 -0.78831481E-05 -0.13372771E-03 -0.12626614E-05
    2    3    0.25469275E-02 -0.49789974E-03 -0.12780274E-02  0.24984231E-03 -0.78858217E-03  0.15416018E-03
    3    3    0.13672618E-02 -0.10663877E-09  0.13672612E-02  0.15665111E-09  0.13672613E-02  0.15024882E-09
    4    3    0.56743118E-03 -0.14723479E-03 -0.44220551E-03  0.11474156E-03  0.30667455E-03 -0.79574181E-04
    5    3    0.13560999E-02  0.18653447E-03 -0.13479320E-02 -0.18541101E-03 -0.67736656E-03 -0.93173672E-04
    6    3    0.13349638E-03  0.79646301E-05  0.83372241E-03  0.49741209E-04 -0.37157285E-03 -0.22168159E-04
    7    3   -0.12296955E-02  0.13425673E-03  0.76945992E-03 -0.84008851E-04 -0.40369827E-03  0.44075327E-04
    8    3    0.20465957E-02  0.15732870E-03  0.32834116E-02  0.25240751E-03 -0.41903154E-02 -0.32212517E-03
    1    4   -0.43979567E-03 -0.11855819E-03 -0.92074632E-03 -0.24820996E-03  0.21201233E-02  0.57153221E-03
    2    4   -0.99749781E-03 -0.60743693E-04  0.66954700E-03  0.40772952E-04  0.26392090E-02  0.16071814E-03
    3    4   -0.23507250E-03 -0.60995341E-04  0.81325526E-03  0.21101979E-03  0.56134086E-03  0.14565454E-03
    4    4    0.10092924E-02  0.64320769E-10  0.56483368E-03  0.42694608E-10  0.10092928E-02  0.39080547E-10
    5    4    0.16882715E-02  0.69510017E-03 -0.13064013E-02 -0.53787512E-03  0.21672394E-02  0.89230218E-03
    6    4   -0.39020527E-04 -0.12648871E-04  0.73345470E-03  0.23775276E-03  0.19009827E-03  0.61621326E-04
    7    4   -0.33181188E-02 -0.48496464E-03  0.50422137E-02  0.73695180E-03 -0.44407044E-02 -0.64903724E-03
    8    4    0.11244316E-02  0.38589953E-03 -0.31175754E-03 -0.10699370E-03  0.64539333E-03  0.22149625E-03
    1    5   -0.34527801E-03  0.44177241E-04  0.21948050E-02 -0.28081890E-03 -0.23440094E-02  0.29990916E-03
    2    5    0.83230139E-03 -0.28485139E-03  0.19536608E-03 -0.66863203E-04  0.21439372E-04 -0.73376008E-05
    3    5    0.53081151E-03 -0.73014359E-04 -0.11249340E-03  0.15473844E-04 -0.25380035E-03  0.34910907E-04
    4    5   -0.98456132E-03  0.40536669E-03 -0.34907218E-03  0.14372114E-03  0.12982768E-02 -0.53453047E-03
    5    5    0.56483484E-03 -0.90875485E-10  0.10092936E-02 -0.10694337E-09  0.10092923E-02 -0.50700387E-10
    6    5   -0.12336769E-02  0.95310329E-04  0.90354075E-03 -0.69804961E-04 -0.10250420E-02  0.79191905E-04
    7    5   -0.17543228E-03  0.43944632E-04 -0.13294563E-02  0.33301916E-03  0.16757037E-02 -0.41975181E-03
    8    5    0.18735842E-03 -0.11249593E-04  0.26889533E-03 -0.16145327E-04 -0.43808716E-03  0.26304474E-04
    1    6    0.92988820E-03 -0.46674603E-04 -0.20262100E-02  0.10170291E-03  0.59305304E-04 -0.29768297E-05
    2    6    0.21175083E-02 -0.54666124E-03 -0.18575919E-02  0.47956017E-03  0.52221759E-04 -0.13481777E-04
    3    6    0.61718779E-03 -0.36822288E-04 -0.32855909E-03  0.19602490E-04 -0.47929722E-03  0.28595313E-04
    4    6    0.26461002E-03 -0.85774696E-04  0.25616881E-03 -0.83038562E-04  0.65769551E-03 -0.21319530E-03
    5    6    0.52858277E-03  0.40836726E-04 -0.35400854E-03 -0.27349594E-04 -0.74316891E-03 -0.57414901E-04
    6    6   -0.10092324E-02 -0.96434534E-10 -0.10092323E-02 -0.64215151E-10 -0.56483777E-03 -0.79420379E-10
    7    6   -0.64849811E-03  0.11021037E-03  0.15728148E-02 -0.26729475E-03 -0.12244986E-02  0.20809954E-03
    8    6    0.30955180E-03  0.53039562E-05  0.28404298E-02  0.48668437E-04 -0.11517951E-02 -0.19735089E-04
    1    7    0.35377930E-03  0.42007987E-04 -0.24581405E-03 -0.29187999E-04  0.11108932E-02  0.13190771E-03
    2    7   -0.12184970E-02  0.10297252E-03  0.15428496E-03 -0.13038370E-04  0.75570848E-03 -0.63863358E-04
    3    7    0.68041808E-03  0.74287092E-04  0.12409862E-03  0.13548823E-04 -0.57212969E-03 -0.62464696E-04
    4    7    0.19829745E-03 -0.28982564E-04  0.92384470E-03 -0.13502599E-03 -0.46114089E-03  0.67398997E-04
    5    7   -0.59731349E-03 -0.14962265E-03 -0.55479206E-03 -0.13897128E-03  0.11712356E-02  0.29338596E-03
    6    7    0.25415488E-02  0.43192799E-03 -0.11769484E-03 -0.20001734E-04 -0.15228979E-03 -0.25881426E-04
    7    7   -0.10092326E-02 -0.19823644E-10 -0.56483782E-03 -0.55172795E-10 -0.10092323E-02  0.84335273E-12
    8    7    0.68358725E-03  0.12825958E-03  0.59518910E-03  0.11167363E-03 -0.90579108E-04 -0.16995129E-04
    1    8    0.11187923E-02 -0.75390854E-04 -0.32656259E-03  0.22005850E-04  0.11846702E-02 -0.79829888E-04
    2    8   -0.81716950E-03  0.22596358E-03  0.10333193E-02 -0.28573306E-03  0.23313372E-02 -0.64466069E-03
    3    8   -0.14231193E-02  0.10940033E-03 -0.11706249E-03  0.89990195E-05 -0.74546629E-03  0.57306951E-04
    4    8   -0.48554805E-03  0.16663808E-03 -0.49508652E-03  0.16991136E-03 -0.31547580E-05  0.10827952E-05
    5    8    0.34243265E-03  0.20560977E-04 -0.30993677E-03 -0.18609632E-04  0.18887605E-03  0.11340814E-04
    6    8   -0.50854242E-04  0.87097143E-06 -0.79552221E-03  0.13630704E-04 -0.72665127E-03  0.12450629E-04
    7    8   -0.10272527E-03  0.19273921E-04  0.88313411E-03 -0.16570009E-03  0.14505716E-02 -0.27216653E-03
    8    8   -0.13674311E-02 -0.13990229E-09 -0.13674314E-02 -0.53103594E-10 -0.13674310E-02  0.66927407E-10
