  422

    1
0.0000000000e+00 0.0000000000e+00 0.0000000000e+00
0.0000000000e+00 0.0000000000e+00 0.0000000000e+00
     1      1      1
 1  1  1     0.0000000000e+00
 1  1  2     0.0000000000e+00
 1  1  3     0.0000000000e+00
 1  2  1     0.0000000000e+00
 1  2  2     0.0000000000e+00
 1  2  3     3.1653714990e+01
 1  3  1     0.0000000000e+00
 1  3  2     3.1653714990e+01
 1  3  3     0.0000000000e+00
 2  1  1     0.0000000000e+00
 2  1  2     0.0000000000e+00
 2  1  3     3.1653714990e+01
 2  2  1     0.0000000000e+00
 2  2  2     0.0000000000e+00
 2  2  3     0.0000000000e+00
 2  3  1     3.1653714990e+01
 2  3  2     0.0000000000e+00
 2  3  3     0.0000000000e+00
 3  1  1     0.0000000000e+00
 3  1  2     3.1653714990e+01
 3  1  3     0.0000000000e+00
 3  2  1     3.1653714990e+01
 3  2  2     0.0000000000e+00
 3  2  3     0.0000000000e+00
 3  3  1     0.0000000000e+00
 3  3  2     0.0000000000e+00
 3  3  3     0.0000000000e+00

    2
0.0000000000e+00 0.0000000000e+00 0.0000000000e+00
0.0000000000e+00 0.0000000000e+00 0.0000000000e+00
     1      1      2
 1  1  1    -3.4079973733e+00
 1  1  2    -6.3721838646e+00
 1  1  3    -6.3721838646e+00
 1  2  1    -5.9216614092e+00
 1  2  2    -5.9216614092e+00
 1  2  3    -8.1682374465e+00
 1  3  1    -5.9216614092e+00
 1  3  2    -8.1682374465e+00
 1  3  3    -5.9216614092e+00
 2  1  1    -5.9216614092e+00
 2  1  2    -5.9216614092e+00
 2  1  3    -8.1682374465e+00
 2  2  1    -6.3721838646e+00
 2  2  2    -3.4079973733e+00
 2  2  3    -6.3721838646e+00
 2  3  1    -8.1682374465e+00
 2  3  2    -5.9216614092e+00
 2  3  3    -5.9216614092e+00
 3  1  1    -5.9216614092e+00
 3  1  2    -8.1682374465e+00
 3  1  3    -5.9216614092e+00
 3  2  1    -8.1682374465e+00
 3  2  2    -5.9216614092e+00
 3  2  3    -5.9216614092e+00
 3  3  1    -6.3721838646e+00
 3  3  2    -6.3721838646e+00
 3  3  3    -3.4079973733e+00

    3
0.0000000000e+00 0.0000000000e+00 0.0000000000e+00
2.6988037757e+00 0.0000000000e+00 -2.6988037757e+00
     1      1      1
 1  1  1     0.0000000000e+00
 1  1  2     3.9484366357e-01
 1  1  3     0.0000000000e+00
 1  2  1     4.7432725291e-02
 1  2  2     0.0000000000e+00
 1  2  3     4.5431532271e-01
 1  3  1     0.0000000000e+00
 1  3  2    -3.7972999125e-01
 1  3  3     0.0000000000e+00
 2  1  1     4.7432725291e-02
 2  1  2     0.0000000000e+00
 2  1  3     4.5431532271e-01
 2  2  1     0.0000000000e+00
 2  2  2     1.5722736337e-01
 2  2  3     0.0000000000e+00
 2  3  1     4.5431532271e-01
 2  3  2     0.0000000000e+00
 2  3  3     4.7432725291e-02
 3  1  1     0.0000000000e+00
 3  1  2    -3.7972999125e-01
 3  1  3     0.0000000000e+00
 3  2  1     4.5431532271e-01
 3  2  2     0.0000000000e+00
 3  2  3     4.7432725291e-02
 3  3  1     0.0000000000e+00
 3  3  2     3.9484366357e-01
 3  3  3     0.0000000000e+00

    4
0.0000000000e+00 0.0000000000e+00 0.0000000000e+00
-2.6988037757e+00 0.0000000000e+00 2.6988037757e+00
     1      1      2
 1  1  1     8.9988614159e-02
 1  1  2    -2.1900421674e-01
 1  1  3     2.1900421674e-01
 1  2  1    -5.5129848845e-02
 1  2  2     5.5129848845e-02
 1  2  3    -9.6416280706e-03
 1  3  1     5.5129848845e-02
 1  3  2    -9.6416280706e-03
 1  3  3     5.5129848845e-02
 2  1  1    -5.5129848845e-02
 2  1  2     5.5129848845e-02
 2  1  3    -9.6416280706e-03
 2  2  1     2.1900421674e-01
 2  2  2    -8.9988614159e-02
 2  2  3     2.1900421674e-01
 2  3  1    -9.6416280706e-03
 2  3  2     5.5129848845e-02
 2  3  3    -5.5129848845e-02
 3  1  1     5.5129848845e-02
 3  1  2    -9.6416280706e-03
 3  1  3     5.5129848845e-02
 3  2  1    -9.6416280706e-03
 3  2  2     5.5129848845e-02
 3  2  3    -5.5129848845e-02
 3  3  1     2.1900421674e-01
 3  3  2    -2.1900421674e-01
 3  3  3     8.9988614159e-02

    5
0.0000000000e+00 0.0000000000e+00 0.0000000000e+00
0.0000000000e+00 2.6988037757e+00 2.6988037757e+00
     1      1      1
 1  1  1    -1.5722736337e-01
 1  1  2     0.0000000000e+00
 1  1  3     0.0000000000e+00
 1  2  1     0.0000000000e+00
 1  2  2    -4.7432725291e-02
 1  2  3     4.5431532271e-01
 1  3  1     0.0000000000e+00
 1  3  2     4.5431532271e-01
 1  3  3    -4.7432725291e-02
 2  1  1     0.0000000000e+00
 2  1  2    -4.7432725291e-02
 2  1  3     4.5431532271e-01
 2  2  1    -3.9484366357e-01
 2  2  2     0.0000000000e+00
 2  2  3     0.0000000000e+00
 2  3  1    -3.7972999125e-01
 2  3  2     0.0000000000e+00
 2  3  3     0.0000000000e+00
 3  1  1     0.0000000000e+00
 3  1  2     4.5431532271e-01
 3  1  3    -4.7432725291e-02
 3  2  1    -3.7972999125e-01
 3  2  2     0.0000000000e+00
 3  2  3     0.0000000000e+00
 3  3  1    -3.9484366357e-01
 3  3  2     0.0000000000e+00
 3  3  3     0.0000000000e+00

    6
0.0000000000e+00 0.0000000000e+00 0.0000000000e+00
0.0000000000e+00 -2.6988037757e+00 -2.6988037757e+00
     1      1      2
 1  1  1    -3.4079973733e+00
 1  1  2     6.3721838646e+00
 1  1  3     6.3721838646e+00
 1  2  1     5.9216614092e+00
 1  2  2    -5.9216614092e+00
 1  2  3    -8.1682374465e+00
 1  3  1     5.9216614092e+00
 1  3  2    -8.1682374465e+00
 1  3  3    -5.9216614092e+00
 2  1  1     5.9216614092e+00
 2  1  2    -5.9216614092e+00
 2  1  3    -8.1682374465e+00
 2  2  1    -6.3721838646e+00
 2  2  2     3.4079973733e+00
 2  2  3     6.3721838646e+00
 2  3  1    -8.1682374465e+00
 2  3  2     5.9216614092e+00
 2  3  3     5.9216614092e+00
 3  1  1     5.9216614092e+00
 3  1  2    -8.1682374465e+00
 3  1  3    -5.9216614092e+00
 3  2  1    -8.1682374465e+00
 3  2  2     5.9216614092e+00
 3  2  3     5.9216614092e+00
 3  3  1    -6.3721838646e+00
 3  3  2     6.3721838646e+00
 3  3  3     3.4079973733e+00

    7
0.0000000000e+00 0.0000000000e+00 0.0000000000e+00
2.6988037757e+00 2.6988037757e+00 0.0000000000e+00
     1      1      1
 1  1  1     0.0000000000e+00
 1  1  2     0.0000000000e+00
 1  1  3    -3.9484366357e-01
 1  2  1     0.0000000000e+00
 1  2  2     0.0000000000e+00
 1  2  3    -3.7972999125e-01
 1  3  1    -4.7432725291e-02
 1  3  2     4.5431532271e-01
 1  3  3     0.0000000000e+00
 2  1  1     0.0000000000e+00
 2  1  2     0.0000000000e+00
 2  1  3    -3.7972999125e-01
 2  2  1     0.0000000000e+00
 2  2  2     0.0000000000e+00
 2  2  3    -3.9484366357e-01
 2  3  1     4.5431532271e-01
 2  3  2    -4.7432725291e-02
 2  3  3     0.0000000000e+00
 3  1  1    -4.7432725291e-02
 3  1  2     4.5431532271e-01
 3  1  3     0.0000000000e+00
 3  2  1     4.5431532271e-01
 3  2  2    -4.7432725291e-02
 3  2  3     0.0000000000e+00
 3  3  1     0.0000000000e+00
 3  3  2     0.0000000000e+00
 3  3  3    -1.5722736337e-01

    8
0.0000000000e+00 0.0000000000e+00 0.0000000000e+00
-2.6988037757e+00 -2.6988037757e+00 0.0000000000e+00
     1      1      2
 1  1  1     3.4079973733e+00
 1  1  2     6.3721838646e+00
 1  1  3    -6.3721838646e+00
 1  2  1     5.9216614092e+00
 1  2  2     5.9216614092e+00
 1  2  3    -8.1682374465e+00
 1  3  1    -5.9216614092e+00
 1  3  2    -8.1682374465e+00
 1  3  3     5.9216614092e+00
 2  1  1     5.9216614092e+00
 2  1  2     5.9216614092e+00
 2  1  3    -8.1682374465e+00
 2  2  1     6.3721838646e+00
 2  2  2     3.4079973733e+00
 2  2  3    -6.3721838646e+00
 2  3  1    -8.1682374465e+00
 2  3  2    -5.9216614092e+00
 2  3  3     5.9216614092e+00
 3  1  1    -5.9216614092e+00
 3  1  2    -8.1682374465e+00
 3  1  3     5.9216614092e+00
 3  2  1    -8.1682374465e+00
 3  2  2    -5.9216614092e+00
 3  2  3     5.9216614092e+00
 3  3  1     6.3721838646e+00
 3  3  2     6.3721838646e+00
 3  3  3    -3.4079973733e+00

    9
0.0000000000e+00 0.0000000000e+00 0.0000000000e+00
2.6988037757e+00 -2.6988037757e+00 0.0000000000e+00
     1      1      1
 1  1  1     0.0000000000e+00
 1  1  2     0.0000000000e+00
 1  1  3     3.9484366357e-01
 1  2  1     0.0000000000e+00
 1  2  2     0.0000000000e+00
 1  2  3    -3.7972999125e-01
 1  3  1     4.7432725291e-02
 1  3  2     4.5431532271e-01
 1  3  3     0.0000000000e+00
 2  1  1     0.0000000000e+00
 2  1  2     0.0000000000e+00
 2  1  3    -3.7972999125e-01
 2  2  1     0.0000000000e+00
 2  2  2     0.0000000000e+00
 2  2  3     3.9484366357e-01
 2  3  1     4.5431532271e-01
 2  3  2     4.7432725291e-02
 2  3  3     0.0000000000e+00
 3  1  1     4.7432725291e-02
 3  1  2     4.5431532271e-01
 3  1  3     0.0000000000e+00
 3  2  1     4.5431532271e-01
 3  2  2     4.7432725291e-02
 3  2  3     0.0000000000e+00
 3  3  1     0.0000000000e+00
 3  3  2     0.0000000000e+00
 3  3  3     1.5722736337e-01

   10
0.0000000000e+00 0.0000000000e+00 0.0000000000e+00
-2.6988037757e+00 2.6988037757e+00 0.0000000000e+00
     1      1      2
 1  1  1     8.9988614159e-02
 1  1  2     2.1900421674e-01
 1  1  3    -2.1900421674e-01
 1  2  1     5.5129848845e-02
 1  2  2     5.5129848845e-02
 1  2  3    -9.6416280706e-03
 1  3  1    -5.5129848845e-02
 1  3  2    -9.6416280706e-03
 1  3  3     5.5129848845e-02
 2  1  1     5.5129848845e-02
 2  1  2     5.5129848845e-02
 2  1  3    -9.6416280706e-03
 2  2  1     2.1900421674e-01
 2  2  2     8.9988614159e-02
 2  2  3    -2.1900421674e-01
 2  3  1    -9.6416280706e-03
 2  3  2    -5.5129848845e-02
 2  3  3     5.5129848845e-02
 3  1  1    -5.5129848845e-02
 3  1  2    -9.6416280706e-03
 3  1  3     5.5129848845e-02
 3  2  1    -9.6416280706e-03
 3  2  2    -5.5129848845e-02
 3  2  3     5.5129848845e-02
 3  3  1     2.1900421674e-01
 3  3  2     2.1900421674e-01
 3  3  3    -8.9988614159e-02

   11
0.0000000000e+00 0.0000000000e+00 0.0000000000e+00
0.0000000000e+00 2.6988037757e+00 -2.6988037757e+00
     1      1      1
 1  1  1     1.5722736337e-01
 1  1  2     0.0000000000e+00
 1  1  3     0.0000000000e+00
 1  2  1     0.0000000000e+00
 1  2  2     4.7432725291e-02
 1  2  3     4.5431532271e-01
 1  3  1     0.0000000000e+00
 1  3  2     4.5431532271e-01
 1  3  3     4.7432725291e-02
 2  1  1     0.0000000000e+00
 2  1  2     4.7432725291e-02
 2  1  3     4.5431532271e-01
 2  2  1     3.9484366357e-01
 2  2  2     0.0000000000e+00
 2  2  3     0.0000000000e+00
 2  3  1    -3.7972999125e-01
 2  3  2     0.0000000000e+00
 2  3  3     0.0000000000e+00
 3  1  1     0.0000000000e+00
 3  1  2     4.5431532271e-01
 3  1  3     4.7432725291e-02
 3  2  1    -3.7972999125e-01
 3  2  2     0.0000000000e+00
 3  2  3     0.0000000000e+00
 3  3  1     3.9484366357e-01
 3  3  2     0.0000000000e+00
 3  3  3     0.0000000000e+00

   12
0.0000000000e+00 0.0000000000e+00 0.0000000000e+00
-5.3976075514e+00 -2.6988037757e+00 -2.6988037757e+00
     1      1      2
 1  1  1    -8.9988614159e-02
 1  1  2     2.1900421674e-01
 1  1  3     2.1900421674e-01
 1  2  1     5.5129848845e-02
 1  2  2    -5.5129848845e-02
 1  2  3    -9.6416280706e-03
 1  3  1     5.5129848845e-02
 1  3  2    -9.6416280706e-03
 1  3  3    -5.5129848845e-02
 2  1  1     5.5129848845e-02
 2  1  2    -5.5129848845e-02
 2  1  3    -9.6416280706e-03
 2  2  1    -2.1900421674e-01
 2  2  2     8.9988614159e-02
 2  2  3     2.1900421674e-01
 2  3  1    -9.6416280706e-03
 2  3  2     5.5129848845e-02
 2  3  3     5.5129848845e-02
 3  1  1     5.5129848845e-02
 3  1  2    -9.6416280706e-03
 3  1  3    -5.5129848845e-02
 3  2  1    -9.6416280706e-03
 3  2  2     5.5129848845e-02
 3  2  3     5.5129848845e-02
 3  3  1    -2.1900421674e-01
 3  3  2     2.1900421674e-01
 3  3  3     8.9988614159e-02

   13
0.0000000000e+00 0.0000000000e+00 0.0000000000e+00
2.6988037757e+00 0.0000000000e+00 2.6988037757e+00
     1      1      1
 1  1  1     0.0000000000e+00
 1  1  2    -3.9484366357e-01
 1  1  3     0.0000000000e+00
 1  2  1    -4.7432725291e-02
 1  2  2     0.0000000000e+00
 1  2  3     4.5431532271e-01
 1  3  1     0.0000000000e+00
 1  3  2    -3.7972999125e-01
 1  3  3     0.0000000000e+00
 2  1  1    -4.7432725291e-02
 2  1  2     0.0000000000e+00
 2  1  3     4.5431532271e-01
 2  2  1     0.0000000000e+00
 2  2  2    -1.5722736337e-01
 2  2  3     0.0000000000e+00
 2  3  1     4.5431532271e-01
 2  3  2     0.0000000000e+00
 2  3  3    -4.7432725291e-02
 3  1  1     0.0000000000e+00
 3  1  2    -3.7972999125e-01
 3  1  3     0.0000000000e+00
 3  2  1     4.5431532271e-01
 3  2  2     0.0000000000e+00
 3  2  3    -4.7432725291e-02
 3  3  1     0.0000000000e+00
 3  3  2    -3.9484366357e-01
 3  3  3     0.0000000000e+00

   14
0.0000000000e+00 0.0000000000e+00 0.0000000000e+00
-2.6988037757e+00 0.0000000000e+00 -2.6988037757e+00
     1      1      2
 1  1  1     3.4079973733e+00
 1  1  2    -6.3721838646e+00
 1  1  3     6.3721838646e+00
 1  2  1    -5.9216614092e+00
 1  2  2     5.9216614092e+00
 1  2  3    -8.1682374465e+00
 1  3  1     5.9216614092e+00
 1  3  2    -8.1682374465e+00
 1  3  3     5.9216614092e+00
 2  1  1    -5.9216614092e+00
 2  1  2     5.9216614092e+00
 2  1  3    -8.1682374465e+00
 2  2  1     6.3721838646e+00
 2  2  2    -3.4079973733e+00
 2  2  3     6.3721838646e+00
 2  3  1    -8.1682374465e+00
 2  3  2     5.9216614092e+00
 2  3  3    -5.9216614092e+00
 3  1  1     5.9216614092e+00
 3  1  2    -8.1682374465e+00
 3  1  3     5.9216614092e+00
 3  2  1    -8.1682374465e+00
 3  2  2     5.9216614092e+00
 3  2  3    -5.9216614092e+00
 3  3  1     6.3721838646e+00
 3  3  2    -6.3721838646e+00
 3  3  3     3.4079973733e+00

   15
0.0000000000e+00 0.0000000000e+00 0.0000000000e+00
-5.3976075514e+00 0.0000000000e+00 0.0000000000e+00
     1      1      2
 1  1  1    -8.9988614159e-02
 1  1  2    -2.1900421674e-01
 1  1  3    -2.1900421674e-01
 1  2  1    -5.5129848845e-02
 1  2  2    -5.5129848845e-02
 1  2  3    -9.6416280706e-03
 1  3  1    -5.5129848845e-02
 1  3  2    -9.6416280706e-03
 1  3  3    -5.5129848845e-02
 2  1  1    -5.5129848845e-02
 2  1  2    -5.5129848845e-02
 2  1  3    -9.6416280706e-03
 2  2  1    -2.1900421674e-01
 2  2  2    -8.9988614159e-02
 2  2  3    -2.1900421674e-01
 2  3  1    -9.6416280706e-03
 2  3  2    -5.5129848845e-02
 2  3  3    -5.5129848845e-02
 3  1  1    -5.5129848845e-02
 3  1  2    -9.6416280706e-03
 3  1  3    -5.5129848845e-02
 3  2  1    -9.6416280706e-03
 3  2  2    -5.5129848845e-02
 3  2  3    -5.5129848845e-02
 3  3  1    -2.1900421674e-01
 3  3  2    -2.1900421674e-01
 3  3  3    -8.9988614159e-02

   16
0.0000000000e+00 0.0000000000e+00 0.0000000000e+00
0.0000000000e+00 0.0000000000e+00 0.0000000000e+00
     1      2      1
 1  1  1    -3.4079973733e+00
 1  1  2    -5.9216614092e+00
 1  1  3    -5.9216614092e+00
 1  2  1    -6.3721838646e+00
 1  2  2    -5.9216614092e+00
 1  2  3    -8.1682374465e+00
 1  3  1    -6.3721838646e+00
 1  3  2    -8.1682374465e+00
 1  3  3    -5.9216614092e+00
 2  1  1    -5.9216614092e+00
 2  1  2    -6.3721838646e+00
 2  1  3    -8.1682374465e+00
 2  2  1    -5.9216614092e+00
 2  2  2    -3.4079973733e+00
 2  2  3    -5.9216614092e+00
 2  3  1    -8.1682374465e+00
 2  3  2    -6.3721838646e+00
 2  3  3    -5.9216614092e+00
 3  1  1    -5.9216614092e+00
 3  1  2    -8.1682374465e+00
 3  1  3    -6.3721838646e+00
 3  2  1    -8.1682374465e+00
 3  2  2    -5.9216614092e+00
 3  2  3    -6.3721838646e+00
 3  3  1    -5.9216614092e+00
 3  3  2    -5.9216614092e+00
 3  3  3    -3.4079973733e+00

   17
0.0000000000e+00 0.0000000000e+00 0.0000000000e+00
0.0000000000e+00 0.0000000000e+00 0.0000000000e+00
     1      2      2
 1  1  1     3.4079973733e+00
 1  1  2     5.9216614092e+00
 1  1  3     5.9216614092e+00
 1  2  1     5.9216614092e+00
 1  2  2     6.3721838646e+00
 1  2  3     8.1682374465e+00
 1  3  1     5.9216614092e+00
 1  3  2     8.1682374465e+00
 1  3  3     6.3721838646e+00
 2  1  1     6.3721838646e+00
 2  1  2     5.9216614092e+00
 2  1  3     8.1682374465e+00
 2  2  1     5.9216614092e+00
 2  2  2     3.4079973733e+00
 2  2  3     5.9216614092e+00
 2  3  1     8.1682374465e+00
 2  3  2     5.9216614092e+00
 2  3  3     6.3721838646e+00
 3  1  1     6.3721838646e+00
 3  1  2     8.1682374465e+00
 3  1  3     5.9216614092e+00
 3  2  1     8.1682374465e+00
 3  2  2     6.3721838646e+00
 3  2  3     5.9216614092e+00
 3  3  1     5.9216614092e+00
 3  3  2     5.9216614092e+00
 3  3  3     3.4079973733e+00

   18
0.0000000000e+00 0.0000000000e+00 0.0000000000e+00
2.6988037757e+00 0.0000000000e+00 -2.6988037757e+00
     1      2      1
 1  1  1    -1.9283274463e-02
 1  1  2    -7.8465069914e-02
 1  1  3     5.7998653802e-02
 1  2  1    -4.6762800066e-02
 1  2  2    -7.6480818406e-02
 1  2  3    -1.8817554723e-01
 1  3  1     1.5285190359e-01
 1  3  2    -7.4412915975e-02
 1  3  3    -1.2595827835e-01
 2  1  1    -7.4306770241e-02
 2  1  2    -4.4960582726e-02
 2  1  3     5.8108181830e-02
 2  2  1     3.7703598655e-02
 2  2  2    -5.3198645042e-02
 2  2  3     3.7703598655e-02
 2  3  1     5.8108181830e-02
 2  3  2    -4.4960582726e-02
 2  3  3    -7.4306770241e-02
 3  1  1    -1.2595827835e-01
 3  1  2    -7.4412915975e-02
 3  1  3     1.5285190359e-01
 3  2  1    -1.8817554723e-01
 3  2  2    -7.6480818406e-02
 3  2  3    -4.6762800066e-02
 3  3  1     5.7998653802e-02
 3  3  2    -7.8465069914e-02
 3  3  3    -1.9283274463e-02

   19
0.0000000000e+00 0.0000000000e+00 0.0000000000e+00
-2.6988037757e+00 0.0000000000e+00 2.6988037757e+00
     1      2      2
 1  1  1     1.9283274463e-02
 1  1  2     7.8465069914e-02
 1  1  3    -5.7998653802e-02
 1  2  1     7.4306770241e-02
 1  2  2     4.4960582726e-02
 1  2  3    -5.8108181830e-02
 1  3  1     1.2595827835e-01
 1  3  2     7.4412915975e-02
 1  3  3    -1.5285190359e-01
 2  1  1     4.6762800066e-02
 2  1  2     7.6480818406e-02
 2  1  3     1.8817554723e-01
 2  2  1    -3.7703598655e-02
 2  2  2     5.3198645042e-02
 2  2  3    -3.7703598655e-02
 2  3  1     1.8817554723e-01
 2  3  2     7.6480818406e-02
 2  3  3     4.6762800066e-02
 3  1  1    -1.5285190359e-01
 3  1  2     7.4412915975e-02
 3  1  3     1.2595827835e-01
 3  2  1    -5.8108181830e-02
 3  2  2     4.4960582726e-02
 3  2  3     7.4306770241e-02
 3  3  1    -5.7998653802e-02
 3  3  2     7.8465069914e-02
 3  3  3     1.9283274463e-02

   20
0.0000000000e+00 0.0000000000e+00 0.0000000000e+00
0.0000000000e+00 2.6988037757e+00 2.6988037757e+00
     1      2      1
 1  1  1     1.8195019926e-02
 1  1  2     8.8690281855e-02
 1  1  3     8.8690281855e-02
 1  2  1     0.0000000000e+00
 1  2  2     1.2597877377e-01
 1  2  3    -1.2338085724e-01
 1  3  1     0.0000000000e+00
 1  3  2    -1.2338085724e-01
 1  3  3     1.2597877377e-01
 2  1  1    -8.8690281855e-02
 2  1  2    -2.2279157049e-02
 2  1  3    -4.9455098300e-01
 2  2  1     1.2597877377e-01
 2  2  2     0.0000000000e+00
 2  2  3     1.7221571653e-01
 2  3  1    -1.2338085724e-01
 2  3  2     0.0000000000e+00
 2  3  3    -1.7221571653e-01
 3  1  1    -8.8690281855e-02
 3  1  2    -4.9455098300e-01
 3  1  3    -2.2279157049e-02
 3  2  1    -1.2338085724e-01
 3  2  2    -1.7221571653e-01
 3  2  3     0.0000000000e+00
 3  3  1     1.2597877377e-01
 3  3  2     1.7221571653e-01
 3  3  3     0.0000000000e+00

   21
0.0000000000e+00 0.0000000000e+00 0.0000000000e+00
0.0000000000e+00 -2.6988037757e+00 -2.6988037757e+00
     1      2      2
 1  1  1    -1.8195019926e-02
 1  1  2    -8.8690281855e-02
 1  1  3    -8.8690281855e-02
 1  2  1     8.8690281855e-02
 1  2  2     2.2279157049e-02
 1  2  3     4.9455098300e-01
 1  3  1     8.8690281855e-02
 1  3  2     4.9455098300e-01
 1  3  3     2.2279157049e-02
 2  1  1     0.0000000000e+00
 2  1  2    -1.2597877377e-01
 2  1  3     1.2338085724e-01
 2  2  1    -1.2597877377e-01
 2  2  2     0.0000000000e+00
 2  2  3    -1.7221571653e-01
 2  3  1     1.2338085724e-01
 2  3  2     1.7221571653e-01
 2  3  3     0.0000000000e+00
 3  1  1     0.0000000000e+00
 3  1  2     1.2338085724e-01
 3  1  3    -1.2597877377e-01
 3  2  1     1.2338085724e-01
 3  2  2     0.0000000000e+00
 3  2  3     1.7221571653e-01
 3  3  1    -1.2597877377e-01
 3  3  2    -1.7221571653e-01
 3  3  3     0.0000000000e+00

   22
0.0000000000e+00 0.0000000000e+00 0.0000000000e+00
2.6988037757e+00 2.6988037757e+00 0.0000000000e+00
     1      2      1
 1  1  1     0.0000000000e+00
 1  1  2     1.7221571653e-01
 1  1  3     1.2597877377e-01
 1  2  1     0.0000000000e+00
 1  2  2    -1.7221571653e-01
 1  2  3    -1.2338085724e-01
 1  3  1    -2.2279157049e-02
 1  3  2    -4.9455098300e-01
 1  3  3    -8.8690281855e-02
 2  1  1    -1.7221571653e-01
 2  1  2     0.0000000000e+00
 2  1  3    -1.2338085724e-01
 2  2  1     1.7221571653e-01
 2  2  2     0.0000000000e+00
 2  2  3     1.2597877377e-01
 2  3  1    -4.9455098300e-01
 2  3  2    -2.2279157049e-02
 2  3  3    -8.8690281855e-02
 3  1  1     1.2597877377e-01
 3  1  2    -1.2338085724e-01
 3  1  3     0.0000000000e+00
 3  2  1    -1.2338085724e-01
 3  2  2     1.2597877377e-01
 3  2  3     0.0000000000e+00
 3  3  1     8.8690281855e-02
 3  3  2     8.8690281855e-02
 3  3  3     1.8195019926e-02

   23
0.0000000000e+00 0.0000000000e+00 0.0000000000e+00
-2.6988037757e+00 -2.6988037757e+00 0.0000000000e+00
     1      2      2
 1  1  1     0.0000000000e+00
 1  1  2    -1.7221571653e-01
 1  1  3    -1.2597877377e-01
 1  2  1     1.7221571653e-01
 1  2  2     0.0000000000e+00
 1  2  3     1.2338085724e-01
 1  3  1    -1.2597877377e-01
 1  3  2     1.2338085724e-01
 1  3  3     0.0000000000e+00
 2  1  1     0.0000000000e+00
 2  1  2     1.7221571653e-01
 2  1  3     1.2338085724e-01
 2  2  1    -1.7221571653e-01
 2  2  2     0.0000000000e+00
 2  2  3    -1.2597877377e-01
 2  3  1     1.2338085724e-01
 2  3  2    -1.2597877377e-01
 2  3  3     0.0000000000e+00
 3  1  1     2.2279157049e-02
 3  1  2     4.9455098300e-01
 3  1  3     8.8690281855e-02
 3  2  1     4.9455098300e-01
 3  2  2     2.2279157049e-02
 3  2  3     8.8690281855e-02
 3  3  1    -8.8690281855e-02
 3  3  2    -8.8690281855e-02
 3  3  3    -1.8195019926e-02

   24
0.0000000000e+00 0.0000000000e+00 0.0000000000e+00
2.6988037757e+00 -2.6988037757e+00 0.0000000000e+00
     1      2      1
 1  1  1    -1.9283274463e-02
 1  1  2     5.7998653802e-02
 1  1  3    -7.8465069914e-02
 1  2  1     1.5285190359e-01
 1  2  2    -1.2595827835e-01
 1  2  3    -7.4412915975e-02
 1  3  1    -4.6762800066e-02
 1  3  2    -1.8817554723e-01
 1  3  3    -7.6480818406e-02
 2  1  1    -1.2595827835e-01
 2  1  2     1.5285190359e-01
 2  1  3    -7.4412915975e-02
 2  2  1     5.7998653802e-02
 2  2  2    -1.9283274463e-02
 2  2  3    -7.8465069914e-02
 2  3  1    -1.8817554723e-01
 2  3  2    -4.6762800066e-02
 2  3  3    -7.6480818406e-02
 3  1  1    -7.4306770241e-02
 3  1  2     5.8108181830e-02
 3  1  3    -4.4960582726e-02
 3  2  1     5.8108181830e-02
 3  2  2    -7.4306770241e-02
 3  2  3    -4.4960582726e-02
 3  3  1     3.7703598655e-02
 3  3  2     3.7703598655e-02
 3  3  3    -5.3198645042e-02

   25
0.0000000000e+00 0.0000000000e+00 0.0000000000e+00
-2.6988037757e+00 2.6988037757e+00 0.0000000000e+00
     1      2      2
 1  1  1     1.9283274463e-02
 1  1  2    -5.7998653802e-02
 1  1  3     7.8465069914e-02
 1  2  1     1.2595827835e-01
 1  2  2    -1.5285190359e-01
 1  2  3     7.4412915975e-02
 1  3  1     7.4306770241e-02
 1  3  2    -5.8108181830e-02
 1  3  3     4.4960582726e-02
 2  1  1    -1.5285190359e-01
 2  1  2     1.2595827835e-01
 2  1  3     7.4412915975e-02
 2  2  1    -5.7998653802e-02
 2  2  2     1.9283274463e-02
 2  2  3     7.8465069914e-02
 2  3  1    -5.8108181830e-02
 2  3  2     7.4306770241e-02
 2  3  3     4.4960582726e-02
 3  1  1     4.6762800066e-02
 3  1  2     1.8817554723e-01
 3  1  3     7.6480818406e-02
 3  2  1     1.8817554723e-01
 3  2  2     4.6762800066e-02
 3  2  3     7.6480818406e-02
 3  3  1    -3.7703598655e-02
 3  3  2    -3.7703598655e-02
 3  3  3     5.3198645042e-02

   26
0.0000000000e+00 0.0000000000e+00 0.0000000000e+00
0.0000000000e+00 2.6988037757e+00 -2.6988037757e+00
     1      2      1
 1  1  1    -5.3198645042e-02
 1  1  2     3.7703598655e-02
 1  1  3     3.7703598655e-02
 1  2  1    -4.4960582726e-02
 1  2  2    -7.4306770241e-02
 1  2  3     5.8108181830e-02
 1  3  1    -4.4960582726e-02
 1  3  2     5.8108181830e-02
 1  3  3    -7.4306770241e-02
 2  1  1    -7.6480818406e-02
 2  1  2    -4.6762800066e-02
 2  1  3    -1.8817554723e-01
 2  2  1    -7.8465069914e-02
 2  2  2    -1.9283274463e-02
 2  2  3     5.7998653802e-02
 2  3  1    -7.4412915975e-02
 2  3  2     1.5285190359e-01
 2  3  3    -1.2595827835e-01
 3  1  1    -7.6480818406e-02
 3  1  2    -1.8817554723e-01
 3  1  3    -4.6762800066e-02
 3  2  1    -7.4412915975e-02
 3  2  2    -1.2595827835e-01
 3  2  3     1.5285190359e-01
 3  3  1    -7.8465069914e-02
 3  3  2     5.7998653802e-02
 3  3  3    -1.9283274463e-02

   27
0.0000000000e+00 0.0000000000e+00 0.0000000000e+00
0.0000000000e+00 2.6988037757e+00 -2.6988037757e+00
     1      2      2
 1  1  1     5.3198645042e-02
 1  1  2    -3.7703598655e-02
 1  1  3    -3.7703598655e-02
 1  2  1     7.6480818406e-02
 1  2  2     4.6762800066e-02
 1  2  3     1.8817554723e-01
 1  3  1     7.6480818406e-02
 1  3  2     1.8817554723e-01
 1  3  3     4.6762800066e-02
 2  1  1     4.4960582726e-02
 2  1  2     7.4306770241e-02
 2  1  3    -5.8108181830e-02
 2  2  1     7.8465069914e-02
 2  2  2     1.9283274463e-02
 2  2  3    -5.7998653802e-02
 2  3  1     7.4412915975e-02
 2  3  2     1.2595827835e-01
 2  3  3    -1.5285190359e-01
 3  1  1     4.4960582726e-02
 3  1  2    -5.8108181830e-02
 3  1  3     7.4306770241e-02
 3  2  1     7.4412915975e-02
 3  2  2    -1.5285190359e-01
 3  2  3     1.2595827835e-01
 3  3  1     7.8465069914e-02
 3  3  2    -5.7998653802e-02
 3  3  3     1.9283274463e-02

   28
0.0000000000e+00 0.0000000000e+00 0.0000000000e+00
2.6988037757e+00 0.0000000000e+00 2.6988037757e+00
     1      2      1
 1  1  1     0.0000000000e+00
 1  1  2     1.2597877377e-01
 1  1  3     1.7221571653e-01
 1  2  1    -2.2279157049e-02
 1  2  2    -8.8690281855e-02
 1  2  3    -4.9455098300e-01
 1  3  1     0.0000000000e+00
 1  3  2    -1.2338085724e-01
 1  3  3    -1.7221571653e-01
 2  1  1     1.2597877377e-01
 2  1  2     0.0000000000e+00
 2  1  3    -1.2338085724e-01
 2  2  1     8.8690281855e-02
 2  2  2     1.8195019926e-02
 2  2  3     8.8690281855e-02
 2  3  1    -1.2338085724e-01
 2  3  2     0.0000000000e+00
 2  3  3     1.2597877377e-01
 3  1  1    -1.7221571653e-01
 3  1  2    -1.2338085724e-01
 3  1  3     0.0000000000e+00
 3  2  1    -4.9455098300e-01
 3  2  2    -8.8690281855e-02
 3  2  3    -2.2279157049e-02
 3  3  1     1.7221571653e-01
 3  3  2     1.2597877377e-01
 3  3  3     0.0000000000e+00

   29
0.0000000000e+00 0.0000000000e+00 0.0000000000e+00
-2.6988037757e+00 0.0000000000e+00 -2.6988037757e+00
     1      2      2
 1  1  1     0.0000000000e+00
 1  1  2    -1.2597877377e-01
 1  1  3    -1.7221571653e-01
 1  2  1    -1.2597877377e-01
 1  2  2     0.0000000000e+00
 1  2  3     1.2338085724e-01
 1  3  1     1.7221571653e-01
 1  3  2     1.2338085724e-01
 1  3  3     0.0000000000e+00
 2  1  1     2.2279157049e-02
 2  1  2     8.8690281855e-02
 2  1  3     4.9455098300e-01
 2  2  1    -8.8690281855e-02
 2  2  2    -1.8195019926e-02
 2  2  3    -8.8690281855e-02
 2  3  1     4.9455098300e-01
 2  3  2     8.8690281855e-02
 2  3  3     2.2279157049e-02
 3  1  1     0.0000000000e+00
 3  1  2     1.2338085724e-01
 3  1  3     1.7221571653e-01
 3  2  1     1.2338085724e-01
 3  2  2     0.0000000000e+00
 3  2  3    -1.2597877377e-01
 3  3  1    -1.7221571653e-01
 3  3  2    -1.2597877377e-01
 3  3  3     0.0000000000e+00

   30
2.6988037757e+00 0.0000000000e+00 -2.6988037757e+00
0.0000000000e+00 0.0000000000e+00 0.0000000000e+00
     1      1      1
 1  1  1     0.0000000000e+00
 1  1  2     4.7432725291e-02
 1  1  3     0.0000000000e+00
 1  2  1     3.9484366357e-01
 1  2  2     0.0000000000e+00
 1  2  3    -3.7972999125e-01
 1  3  1     0.0000000000e+00
 1  3  2     4.5431532271e-01
 1  3  3     0.0000000000e+00
 2  1  1     4.7432725291e-02
 2  1  2     0.0000000000e+00
 2  1  3     4.5431532271e-01
 2  2  1     0.0000000000e+00
 2  2  2     1.5722736337e-01
 2  2  3     0.0000000000e+00
 2  3  1     4.5431532271e-01
 2  3  2     0.0000000000e+00
 2  3  3     4.7432725291e-02
 3  1  1     0.0000000000e+00
 3  1  2     4.5431532271e-01
 3  1  3     0.0000000000e+00
 3  2  1    -3.7972999125e-01
 3  2  2     0.0000000000e+00
 3  2  3     3.9484366357e-01
 3  3  1     0.0000000000e+00
 3  3  2     4.7432725291e-02
 3  3  3     0.0000000000e+00

   31
2.6988037757e+00 0.0000000000e+00 -2.6988037757e+00
0.0000000000e+00 0.0000000000e+00 0.0000000000e+00
     1      1      2
 1  1  1    -1.9283274463e-02
 1  1  2    -4.6762800066e-02
 1  1  3     1.5285190359e-01
 1  2  1    -7.8465069914e-02
 1  2  2    -7.6480818406e-02
 1  2  3    -7.4412915975e-02
 1  3  1     5.7998653802e-02
 1  3  2    -1.8817554723e-01
 1  3  3    -1.2595827835e-01
 2  1  1    -7.4306770241e-02
 2  1  2     3.7703598655e-02
 2  1  3     5.8108181830e-02
 2  2  1    -4.4960582726e-02
 2  2  2    -5.3198645042e-02
 2  2  3    -4.4960582726e-02
 2  3  1     5.8108181830e-02
 2  3  2     3.7703598655e-02
 2  3  3    -7.4306770241e-02
 3  1  1    -1.2595827835e-01
 3  1  2    -1.8817554723e-01
 3  1  3     5.7998653802e-02
 3  2  1    -7.4412915975e-02
 3  2  2    -7.6480818406e-02
 3  2  3    -7.8465069914e-02
 3  3  1     1.5285190359e-01
 3  3  2    -4.6762800066e-02
 3  3  3    -1.9283274463e-02

   32
-2.6988037757e+00 0.0000000000e+00 2.6988037757e+00
-2.6988037757e+00 0.0000000000e+00 2.6988037757e+00
     1      1      1
 1  1  1     0.0000000000e+00
 1  1  2     4.7432725291e-02
 1  1  3     0.0000000000e+00
 1  2  1     4.7432725291e-02
 1  2  2     0.0000000000e+00
 1  2  3     4.5431532271e-01
 1  3  1     0.0000000000e+00
 1  3  2     4.5431532271e-01
 1  3  3     0.0000000000e+00
 2  1  1     3.9484366357e-01
 2  1  2     0.0000000000e+00
 2  1  3    -3.7972999125e-01
 2  2  1     0.0000000000e+00
 2  2  2     1.5722736337e-01
 2  2  3     0.0000000000e+00
 2  3  1    -3.7972999125e-01
 2  3  2     0.0000000000e+00
 2  3  3     3.9484366357e-01
 3  1  1     0.0000000000e+00
 3  1  2     4.5431532271e-01
 3  1  3     0.0000000000e+00
 3  2  1     4.5431532271e-01
 3  2  2     0.0000000000e+00