 written on 19Aug2020 at 14:01:02 
  -2.6988037638089994        0.0000000000000000        2.6988037638089994     
   0.0000000000000000        2.6988037638089994        2.6988037638089994     
  -2.6988037638089994        2.6988037638089994        0.0000000000000000     
           8
          93
    4    6    2    2    2    1    2    2    1    1    2    6    2    2    2
    6    2    2    4    1    1    1    4    1    1    1    1    2    1    1
    1    2    2    1    1    2    4    2    1    2    1    1    1    1    2
    1    1    1    2    1    1    1    1    2    1    2    4    2    1    1
    2    2    1    1    1    2    1    1    1    1    4    1    1    1    4
    2    2    6    2    2    2    6    2    1    1    2    2    1    2    2
    2    6    4

   -3    1    1
    1    1    0.66163619E-01 -0.30872281E-02
    2    1    0.55371032E-01  0.84293290E-03
    3    1   -0.10962244E-01  0.62206702E-03
    4    1    0.20058225E-01  0.25643861E-02
    5    1    0.70520047E-02 -0.15706162E-02
    6    1    0.23201182E-01 -0.93187429E-04
    7    1   -0.11662470E-01 -0.57138935E-03
    8    1    0.18448180E-01 -0.45394798E-01
    1    2    0.15979336E-01 -0.24162490E-02
    2    2    0.65453777E-01  0.18564943E-02
    3    2    0.55165525E-01  0.53366312E-02
    4    2    0.10792673E-01  0.10772953E-02
    5    2    0.81042584E-04 -0.26649802E-03
    6    2   -0.19832473E-01 -0.26381969E-02
    7    2   -0.15448188E-02  0.33673749E-02
    8    2    0.25787711E+00 -0.37681984E-01
    1    3   -0.86969763E-02  0.16267151E-02
    2    3    0.17792453E-01 -0.12939178E-02
    3    3    0.65550836E-01  0.17918670E-03
    4    3   -0.24808914E-01 -0.28453365E-03
    5    3    0.10040134E-01 -0.74658072E-03
    6    3   -0.12815287E-01  0.20701425E-02
    7    3   -0.16184410E-01  0.41353411E-02
    8    3    0.62338627E-01  0.41918240E-01
    1    4   -0.25580276E-01  0.26162720E-02
    2    4    0.95278181E-02 -0.13205741E-02
    3    4   -0.15642641E-01 -0.15315327E-02
    4    4    0.64431972E-01 -0.19552275E-03
    5    4   -0.49867657E-01  0.28000231E-02
    6    4    0.10738672E-01  0.10604205E-02
    7    4   -0.15901527E-01  0.16919323E-02
    8    4    0.13596331E+00  0.15902454E-01
    1    5    0.10872578E-01 -0.31333254E-03
    2    5    0.14655720E-01  0.51823168E-03
    3    5    0.12281453E+00  0.97265468E-02
    4    5   -0.50423941E-01 -0.25346712E-02
    5    5    0.64754724E-01 -0.69299993E-03
    6    5   -0.15197738E-01 -0.11771610E-02
    7    5   -0.13710854E-01  0.67334265E-03
    8    5   -0.19267733E-03 -0.35259211E-01
    1    6    0.15544585E-01  0.11961565E-02
    2    6    0.26677082E-01 -0.14193281E-02
    3    6   -0.78744358E-02 -0.23399584E-02
    4    6    0.88058125E-02  0.98420046E-03
    5    6   -0.54776288E-01 -0.13861980E-03
    6    6    0.64502412E-01  0.13491150E-02
    7    6   -0.15778115E-01 -0.66962704E-03
    8    6    0.11987237E+00  0.57808465E-01
    1    7    0.82851707E-01  0.47848439E-02
    2    7   -0.17232033E-01 -0.44672147E-03
    3    7    0.23751639E-01  0.49497909E-02
    4    7   -0.54013365E-01 -0.82772862E-02
    5    7   -0.58162149E-01 -0.39357568E-02
    6    7    0.25423931E-01  0.17056680E-02
    7    7    0.66711979E-01  0.23758292E-02
    8    7   -0.58558299E-01  0.56988752E-02
    1    8   -0.49026676E-01  0.28422391E-06
    2    8    0.19014444E-01  0.16507608E-01
    3    8   -0.70238731E-02  0.60615232E-02
    4    8   -0.54602513E-02 -0.84239387E-02
    5    8    0.97297350E-02 -0.12316089E-02
    6    8   -0.39886083E-01 -0.19160195E-01
    7    8    0.25442059E-01 -0.21813303E-01
    8    8    0.65491072E-01 -0.17848729E-02

   -2   -2    2
    1    1    0.57162432E-02  0.69170924E-18
    2    1    0.19530666E-02 -0.32698056E-03
    3    1   -0.10182152E-01 -0.29192329E-02
    4    1    0.15191326E-03 -0.77202948E-03
    5    1    0.61815302E-02 -0.68028651E-03
    6    1   -0.33170639E-03 -0.97366408E-04
    7    1   -0.12310948E-01  0.28333858E-02
    8    1   -0.89175873E-02  0.85271334E-02
    1    2    0.19530666E-02  0.32698056E-03
    2    2    0.30713728E-02  0.16829471E-16
    3    2    0.19854201E-02 -0.22124400E-02
    4    2    0.57308467E-02  0.27856435E-03
    5    2    0.12384598E-01  0.19062858E-03
    6    2   -0.14510457E-04 -0.33776472E-03
    7    2   -0.13353421E-01  0.20012631E-02
    8    2    0.89991900E-02  0.89230931E-03
    1    3   -0.10182152E-01  0.29192329E-02
    2    3    0.19854201E-02  0.22124400E-02
    3    3    0.45119458E-02 -0.14252542E-17
    4    3    0.11819828E-02 -0.62844843E-03
    5    3    0.11638687E-01  0.27807400E-03
    6    3   -0.49286085E-02 -0.24946569E-02
    7    3   -0.25674014E-02  0.95519668E-03
    8    3   -0.94630976E-02 -0.32538215E-02
    1    4    0.15191326E-03  0.77202948E-03
    2    4    0.57308467E-02 -0.27856435E-03
    3    4    0.11819828E-02  0.62844843E-03
    4    4    0.49036542E-02 -0.85494434E-17
    5    4    0.99712478E-03  0.28942080E-03
    6    4    0.44449643E-02 -0.75595657E-04
    7    4   -0.12110485E-02 -0.11122034E-02
    8    4    0.15799399E-01 -0.47601840E-02
    1    5    0.61815302E-02  0.68028651E-03
    2    5    0.12384598E-01 -0.19062858E-03
    3    5    0.11638687E-01 -0.27807400E-03
    4    5    0.99712478E-03 -0.28942080E-03
    5    5    0.55177797E-02  0.13243032E-16
    6    5   -0.35348569E-02  0.34069470E-03
    7    5   -0.23217428E-02  0.13641475E-02
    8    5   -0.82464597E-02  0.19133026E-01
    1    6   -0.33170639E-03  0.97366408E-04
    2    6   -0.14510457E-04  0.33776472E-03
    3    6   -0.49286085E-02  0.24946569E-02
    4    6    0.44449643E-02  0.75595657E-04
    5    6   -0.35348569E-02 -0.34069470E-03
    6    6    0.40537708E-02  0.14915107E-16
    7    6    0.86463998E-02 -0.47981593E-03
    8    6   -0.42772313E-02 -0.29898560E-02
    1    7   -0.12310948E-01 -0.28333858E-02
    2    7   -0.13353421E-01 -0.20012631E-02
    3    7   -0.25674014E-02 -0.95519668E-03
    4    7   -0.12110485E-02  0.11122034E-02
    5    7   -0.23217428E-02 -0.13641475E-02
    6    7    0.86463998E-02  0.47981593E-03
    7    7    0.14920619E-02 -0.17080910E-16
    8    7    0.74396664E-03 -0.33196265E-01
    1    8   -0.89175873E-02 -0.85271334E-02
    2    8    0.89991900E-02 -0.89230931E-03
    3    8   -0.94630976E-02  0.32538215E-02
    4    8    0.15799399E-01  0.47601840E-02
    5    8   -0.82464597E-02 -0.19133026E-01
    6    8   -0.42772313E-02  0.29898560E-02
    7    8    0.74396664E-03  0.33196265E-01
    8    8    0.51988220E-02  0.12464275E-16

   -2   -1    1
    1    1   -0.64563524E-02 -0.31961799E-03
    2    1   -0.10836977E-01 -0.38900798E-03
    3    1    0.31508023E-01  0.42324740E-02
    4    1    0.26721520E-02  0.39737539E-03
    5    1   -0.20364848E-01  0.79667800E-03
    6    1   -0.10375194E-01  0.10222830E-02
    7    1   -0.12619286E+00  0.82261118E-02
    8    1    0.24600365E+00 -0.35799012E-01
    1    2    0.20578708E-02 -0.57282386E-03
    2    2   -0.16602741E-01 -0.33551719E-03
    3    2    0.53645108E-02  0.39149681E-02
    4    2    0.98273249E-02  0.11910459E-03
    5    2    0.10687363E-01 -0.12508565E-03
    6    2    0.11850804E-01  0.11530414E-02
    7    2    0.11806731E-01 -0.18631396E-02
    8    2   -0.85075810E-01 -0.28681744E-02
    1    3   -0.26912304E-02 -0.10959589E-02
    2    3   -0.89972959E-02 -0.13040748E-02
    3    3   -0.50014572E-02 -0.11080096E-02
    4    3   -0.96742246E-03  0.98544804E-04
    5    3    0.12367488E-03 -0.64257675E-03
    6    3   -0.49458526E-03  0.20559698E-02
    7    3    0.34541975E-01 -0.63681862E-02
    8    3    0.11022158E-01  0.84312125E-02
    1    4    0.16878122E-02 -0.66447636E-03
    2    4   -0.19755073E-01  0.14279157E-02
    3    4    0.19258736E-02 -0.95586910E-03
    4    4   -0.54766092E-02 -0.27417950E-03
    5    4    0.30676878E-02 -0.84059620E-03
    6    4   -0.34240611E-02 -0.80407929E-03
    7    4   -0.15820133E-01  0.39519853E-02
    8    4    0.13236120E-01  0.10642052E-01
    1    5    0.93682316E-02 -0.14555124E-02
    2    5   -0.89387831E-01 -0.14760394E-02
    3    5   -0.99926293E-02  0.64750096E-03
    4    5   -0.16225009E-01  0.59304303E-04
    5    5   -0.19278251E-01  0.31276975E-03
    6    5    0.19423694E-01 -0.15253158E-03
    7    5   -0.38890834E-02 -0.10907897E-02
    8    5    0.85292128E-01 -0.26271422E-01
    1    6   -0.51177229E-02  0.67494660E-03
    2    6    0.13799967E-01 -0.29955927E-04
    3    6    0.15623308E-01 -0.26550491E-02
    4    6   -0.87804547E-02 -0.64146710E-03
    5    6   -0.64993480E-02  0.35903421E-03
    6    6   -0.17838813E-01 -0.31562627E-03
    7    6   -0.52655722E-01  0.38901122E-02
    8    6   -0.16518451E-01 -0.32610158E-03
    1    7   -0.67571369E-02  0.78242300E-03
    2    7   -0.20345709E-02  0.73247417E-03
    3    7    0.35945066E-01  0.66016043E-02
    4    7   -0.31084424E-02 -0.16809622E-02
    5    7    0.38467631E-02  0.16405357E-02
    6    7   -0.90531717E-02 -0.99158729E-03
    7    7   -0.12968438E-02 -0.24516031E-03
    8    7   -0.21951362E-01  0.35857702E-01
    1    8    0.56121907E-02  0.18615748E-02
    2    8    0.29301241E-01  0.27597368E-02
    3    8    0.72414938E-02 -0.13704872E-01
    4    8    0.65475628E-02 -0.29821192E-02
    5    8   -0.13017081E-02  0.12217865E-01
    6    8   -0.22797934E-01 -0.60035991E-02
    7    8    0.59883169E-02 -0.44005564E-01
    8    8   -0.18808551E-01  0.22853421E-02

   -2   -1    2
    1    1   -0.18509773E-01  0.16387674E-02
    2    1    0.37623161E-02  0.67837897E-03
    3    1    0.16607525E-01 -0.11965864E-02
    4    1   -0.12762502E-01 -0.21711003E-02
    5    1    0.69632349E-02  0.97359011E-03
    6    1   -0.11039512E-01 -0.16075828E-02
    7    1   -0.49441236E-02  0.89666645E-03
    8    1    0.70078363E-02  0.38071025E-01
    1    2   -0.42065082E-02 -0.46818929E-04
    2    2   -0.49717963E-02 -0.74131945E-03
    3    2    0.38058383E-02 -0.16132410E-02
    4    2   -0.90659115E-03  0.41122170E-03
    5    2    0.39438278E-03  0.81021010E-03
    6    2   -0.38075504E-03 -0.15143500E-05
    7    2   -0.11288030E-01 -0.15313103E-02
    8    2    0.70942718E-02  0.21652946E-01
    1    3    0.67149618E-02 -0.12345897E-02
    2    3    0.13124907E-01 -0.49771906E-03
    3    3   -0.51691214E-02  0.18813207E-04
    4    3    0.12860794E-01  0.53935471E-03
    5    3   -0.13013127E-02  0.16212061E-03
    6    3   -0.12029482E-01 -0.67527075E-03
    7    3   -0.27967185E-02  0.83404271E-04
    8    3   -0.48883738E-02 -0.29376934E-01
    1    4   -0.17124403E-01  0.13654952E-02
    2    4   -0.16733475E-01  0.14253561E-02
    3    4    0.15125739E-01  0.10681703E-02
    4    4   -0.17127721E-01 -0.18255403E-03
    5    4   -0.45226187E-02  0.10346492E-03
    6    4   -0.69671344E-02  0.35531084E-04
    7    4    0.10074734E-01 -0.81101049E-03
    8    4    0.48716836E-02 -0.15781528E-01
    1    5    0.71837097E-02 -0.12508905E-03
    2    5   -0.16751564E-01 -0.65477171E-03
    3    5   -0.10180144E-01 -0.13822630E-02
    4    5   -0.69311392E-01 -0.37560100E-02
    5    5   -0.17946219E-01  0.96107105E-03
    6    5   -0.41830097E-02  0.54985985E-03
    7    5   -0.51419785E-02  0.57588401E-03
    8    5    0.16864571E-01  0.21718250E-01
    1    6   -0.53105622E-02 -0.49796763E-03
    2    6   -0.17830088E-02  0.45150847E-03
    3    6   -0.16378996E-01  0.11715138E-02
    4    6   -0.85360147E-03  0.34279684E-03
    5    6    0.26508216E-02 -0.11507323E-02
    6    6   -0.41487368E-02 -0.37664658E-03
    7    6    0.67250538E-02  0.18478698E-02
    8    6   -0.21853569E-01 -0.24349671E-01
    1    7    0.19825096E-01  0.29138593E-02
    2    7   -0.61504187E-02 -0.27734461E-02
    3    7    0.37583134E-03 -0.69730828E-03
    4    7   -0.54657744E-02  0.38032788E-03
    5    7    0.10609971E-01 -0.11063307E-03
    6    7    0.18719360E-01  0.29062853E-02
    7    7   -0.63893357E-02 -0.13565885E-02
    8    7    0.34073668E-01 -0.16748320E-01
    1    8   -0.73557021E-01 -0.43099597E-02
    2    8   -0.33802378E-01 -0.17334302E-01
    3    8    0.11975208E-01 -0.65439951E-02
    4    8    0.24636482E-01  0.14039915E-01
    5    8   -0.27399201E-01 -0.54600019E-02
    6    8    0.51283182E-01  0.27212420E-01
    7    8   -0.10039634E-01  0.12726107E-01
    8    8   -0.16496915E-01  0.38455440E-04

   -2    0    0
    1    1   -0.33619702E-02  0.38795034E-15
    2    1   -0.17114300E-01 -0.60015445E-03
    3    1   -0.98906566E-02 -0.16136817E-02
    4    1    0.27652913E-03 -0.38086186E-03
    5    1   -0.87684316E-01 -0.27890687E-02
    6    1    0.15392751E-01  0.63424993E-03
    7    1   -0.12220629E-01  0.26560601E-02
    8    1    0.31203136E-01  0.90606367E-02
    1    2   -0.17114300E-01  0.60015445E-03
    2    2   -0.17025027E-01  0.40728721E-15
    3    2    0.22571034E-01 -0.10561551E-02
    4    2   -0.87852833E-01 -0.15126172E-02
    5    2   -0.87303841E-01 -0.11162828E-03
    6    2   -0.92055428E-01 -0.19605428E-02
    7    2   -0.12473560E+00  0.13467861E-01
    8    2    0.27605232E+00 -0.51896404E-04
    1    3   -0.98906566E-02  0.16136817E-02
    2    3    0.22571034E-01  0.10561551E-02
    3    3   -0.49933175E-02  0.36890255E-15
    4    3    0.51189259E-02 -0.96026811E-03
    5    3    0.13875726E-01 -0.46390766E-03
    6    3   -0.10905263E-01 -0.11219200E-02
    7    3    0.21032898E-01 -0.36873686E-02
    8    3   -0.12957761E+00 -0.18253024E-01
    1    4    0.27652913E-03  0.38086186E-03
    2    4   -0.87852833E-01  0.15126172E-02
    3    4    0.51189259E-02  0.96026811E-03
    4    4   -0.46016473E-02  0.37091878E-15
    5    4   -0.11211116E-01  0.19364990E-02
    6    4   -0.26063739E-02  0.11501033E-02
    7    4   -0.14110929E-01  0.55768871E-03
    8    4   -0.11925907E-01 -0.16450679E-01
    1    5   -0.87684316E-01  0.27890687E-02
    2    5   -0.87303841E-01  0.11162828E-03
    3    5    0.13875726E-01  0.46390766E-03
    4    5   -0.11211116E-01 -0.19364990E-02
    5    5   -0.12827572E-01  0.37604695E-15
    6    5   -0.59134546E-01  0.27417244E-03
    7    5   -0.81982185E-02  0.20232008E-02
    8    5   -0.12656438E-01  0.13293967E-01
    1    6    0.15392751E-01 -0.63424993E-03
    2    6   -0.92055428E-01  0.19605428E-02
    3    6   -0.10905263E-01  0.11219200E-02
    4    6   -0.26063739E-02 -0.11501033E-02
    5    6   -0.59134546E-01 -0.27417244E-03
    6    6   -0.14178947E-01  0.39182227E-15
    7    6    0.15669875E-01 -0.89695618E-03
    8    6   -0.80757094E-02 -0.16591986E-01
    1    7   -0.12220629E-01 -0.26560601E-02
    2    7   -0.12473560E+00 -0.13467861E-01
    3    7    0.21032898E-01  0.36873686E-02
    4    7   -0.14110929E-01 -0.55768871E-03
    5    7   -0.81982185E-02 -0.20232008E-02
    6    7    0.15669875E-01  0.89695618E-03
    7    7   -0.94263632E-02  0.32787892E-15
    8    7    0.11499821E+00 -0.32359030E-01
    1    8    0.31203136E-01 -0.90606367E-02
    2    8    0.27605232E+00  0.51896404E-04
    3    8   -0.12957761E+00  0.18253024E-01
    4    8   -0.11925907E-01  0.16450679E-01
    5    8   -0.12656438E-01 -0.13293967E-01
    6    8   -0.80757094E-02  0.16591986E-01
    7    8    0.11499821E+00  0.32359030E-01
    8    8   -0.11115985E-01  0.37760170E-15

   -2    0    1
    1    1   -0.55267788E-02 -0.28884394E-02
    2    1    0.57778704E-01  0.58426925E-03
    3    1    0.14067070E-01  0.32702602E-02
    4    1    0.19958292E-01  0.23642606E-02
    5    1   -0.18306342E-01 -0.11505830E-02
    6    1    0.22149911E-01  0.12743056E-02
    7    1   -0.29898982E-02 -0.91361764E-03
    8    1    0.16573640E-01 -0.40399854E-01
    1    2    0.29194869E-02 -0.53984043E-03
    2    2   -0.50603157E-02  0.17364829E-02
    3    2    0.19385362E-02  0.12661737E-02
    4    2    0.12811470E-01 -0.33196497E-03
    5    2    0.87900407E-02 -0.22135690E-03
    6    2    0.11122907E-01 -0.44796367E-03
    7    2    0.11368368E-01  0.26791128E-02
    8    2   -0.11754012E+00 -0.41357903E-01
    1    3    0.86069313E-02  0.30421286E-04
    2    3    0.32191030E-01 -0.23640200E-02
    3    3   -0.15649520E-01 -0.57431198E-03
    4    3    0.99837568E-02 -0.14034317E-02
    5    3    0.67387923E-02 -0.35949464E-03
    6    3   -0.62385466E-02  0.11967859E-02
    7    3    0.85809361E-03  0.22063493E-03
    8    3   -0.79928876E-02  0.48844181E-01
    1    4   -0.14566327E-01  0.55531086E-03
    2    4   -0.88159094E-01  0.26982614E-02
    3    4    0.12227415E+00  0.27561137E-02
    4    4   -0.69300410E-02 -0.40049059E-03
    5    4    0.84778296E-02 -0.97750010E-03
    6    4    0.95588375E-02 -0.28592943E-03
    7    4   -0.30840526E-01  0.40068995E-02
    8    4    0.44459325E-02  0.23425386E-01
    1    5    0.18821222E-01  0.75598995E-04
    2    5   -0.18883020E-01  0.25725317E-03
    3    5    0.12187961E+00  0.10258931E-01
    4    5    0.57056182E-01  0.32335855E-02
    5    5    0.13277347E-01 -0.53905525E-03
    6    5    0.10070278E-01 -0.46142654E-03
    7    5   -0.21123943E-01  0.19325910E-02
    8    5   -0.74630143E-02 -0.26741175E-01
    1    6    0.18897301E-01  0.93594341E-03
    2    6    0.20615510E+00 -0.17052019E-03
    3    6    0.12936427E-01 -0.14621963E-02
    4    6    0.77494077E-02  0.21066027E-03
    5    6   -0.47739613E-02  0.68192010E-03
    6    6   -0.67727522E-02  0.77366113E-03
    7    6    0.58711017E-02 -0.34058012E-02
    8    6    0.14892088E-01  0.60174362E-01
    1    7    0.13439077E-01 -0.30467717E-03
    2    7   -0.70037678E-02  0.61744732E-03
    3    7    0.21575296E-01  0.43374809E-02
    4    7   -0.31229800E-02 -0.12812100E-02
    5    7   -0.93867411E-02  0.30251501E-03
    6    7    0.32261628E-01  0.23391802E-02
    7    7   -0.14147908E-01  0.18925558E-02
    8    7   -0.59056665E-01  0.58159236E-02
    1    8    0.78088952E-01  0.51188864E-02
    2    8    0.29673129E-01  0.24610863E-01
    3    8   -0.10866593E+00 -0.34861732E-02
    4    8    0.11213122E-02 -0.10520535E-01
    5    8   -0.20912796E-01  0.18815003E-02
    6    8   -0.23675210E-01 -0.25995742E-01
    7    8    0.29260325E-01 -0.38685373E-01
    8    8    0.10732761E-01 -0.40194120E-06

   -2    0    2
    1    1   -0.15307953E-01  0.16907889E-16
    2    1    0.72949027E-02  0.91016599E-04
    3    1   -0.47925362E-01 -0.51112662E-02
    4    1    0.14258323E-01 -0.74109646E-04
    5    1    0.78831761E-02  0.10937994E-02
    6    1    0.18086941E-01  0.41861728E-04
    7    1   -0.10053723E-01 -0.62079520E-03
    8    1   -0.37927290E-01  0.33371147E-01
    1    2    0.72949027E-02 -0.91016599E-04
    2    2   -0.38723845E-02 -0.23158469E-17
    3    2    0.15523256E-01  0.14237078E-02
    4    2    0.93788360E-02 -0.43185210E-04
    5    2    0.58462798E-02  0.63441864E-03
    6    2   -0.21163495E-02  0.19000615E-03
    7    2   -0.78651287E-02 -0.12130421E-02
    8    2   -0.21555973E-01  0.42075994E-01
    1    3   -0.47925362E-01  0.51112662E-02
    2    3    0.15523256E-01 -0.14237078E-02
    3    3   -0.35733493E-02 -0.65441926E-17
    4    3   -0.11649208E-01  0.10801475E-02
    5    3    0.14163535E-01 -0.20690849E-02
    6    3   -0.12203962E+00  0.90951628E-02
    7    3   -0.24831362E-02 -0.93277675E-03
    8    3    0.15239748E-01 -0.37917534E-01
    1    4    0.14258323E-01  0.74109646E-04
    2    4    0.93788360E-02  0.43185210E-04
    3    4   -0.11649208E-01 -0.10801475E-02
    4    4   -0.12459244E-01 -0.99172464E-17
    5    4    0.57898152E-02 -0.48555346E-03
    6    4   -0.28371058E-02 -0.70700319E-03
    7    4   -0.21866202E-01  0.44131188E-02
    8    4    0.12791398E-01 -0.24766482E-01
    1    5    0.78831761E-02 -0.10937994E-02
    2    5    0.58462798E-02 -0.63441864E-03
    3    5    0.14163535E-01  0.20690849E-02
    4    5    0.57898152E-02  0.48555346E-03
    5    5   -0.14612270E-01  0.69708774E-17
    6    5   -0.80044082E-02  0.15703602E-02
    7    5   -0.22142944E-01  0.15651551E-03
    8    5   -0.40119462E-01  0.23867774E-02
    1    6    0.18086941E-01 -0.41861728E-04
    2    6   -0.21163495E-02 -0.19000615E-03
    3    6   -0.12203962E+00 -0.90951628E-02
    4    6   -0.28371058E-02  0.70700319E-03
    5    6   -0.80044082E-02 -0.15703602E-02
    6    6   -0.42772249E-02  0.15815671E-16
    7    6    0.17997526E-01 -0.25578429E-03
    8    6    0.94955902E-02 -0.56473172E-01
    1    7   -0.10053723E-01  0.62079520E-03
    2    7   -0.78651287E-02  0.12130421E-02
    3    7   -0.24831362E-02  0.93277675E-03
    4    7   -0.21866202E-01 -0.44131188E-02
    5    7   -0.22142944E-01 -0.15651551E-03
    6    7    0.17997526E-01  0.25578429E-03
    7    7   -0.46091092E-02 -0.40715974E-17
    8    7    0.88794317E-01  0.35139618E-01
    1    8   -0.37927290E-01 -0.33371147E-01
    2    8   -0.21555973E-01 -0.42075994E-01
    3    8    0.15239748E-01  0.37917534E-01
    4    8    0.12791398E-01  0.24766482E-01
    5    8   -0.40119462E-01 -0.23867774E-02
    6    8    0.94955902E-02  0.56473172E-01
    7    8    0.88794317E-01 -0.35139618E-01
    8    8   -0.18819293E-01 -0.32404286E-17

   -2    1   -1
    1    1   -0.64563524E-02  0.31961799E-03
    2    1    0.20578708E-02  0.57282386E-03
    3    1   -0.26912304E-02  0.10959589E-02
    4    1    0.16878122E-02  0.66447636E-03
    5    1    0.93682316E-02  0.14555124E-02
    6    1   -0.51177229E-02 -0.67494660E-03
    7    1   -0.67571369E-02 -0.78242300E-03
    8    1    0.56121907E-02 -0.18615748E-02
    1    2   -0.10836977E-01  0.38900798E-03
    2    2   -0.16602741E-01  0.33551719E-03
    3    2   -0.89972959E-02  0.13040748E-02
    4    2   -0.19755073E-01 -0.14279157E-02
    5    2   -0.89387831E-01  0.14760394E-02
    6    2    0.13799967E-01  0.29955927E-04
    7    2   -0.20345709E-02 -0.73247417E-03
    8    2    0.29301241E-01 -0.27597368E-02
    1    3    0.31508023E-01 -0.42324740E-02
    2    3    0.53645108E-02 -0.39149681E-02
    3    3   -0.50014572E-02  0.11080096E-02
    4    3    0.19258736E-02  0.95586910E-03
    5    3   -0.99926293E-02 -0.64750096E-03
    6    3    0.15623308E-01  0.26550491E-02
    7    3    0.35945066E-01 -0.66016043E-02
    8    3    0.72414938E-02  0.13704872E-01
    1    4    0.26721520E-02 -0.39737539E-03
    2    4    0.98273249E-02 -0.11910459E-03
    3    4   -0.96742246E-03 -0.98544804E-04
    4    4   -0.54766092E-02  0.27417950E-03
    5    4   -0.16225009E-01 -0.59304303E-04
    6    4   -0.87804547E-02  0.64146710E-03
    7    4   -0.31084424E-02  0.16809622E-02
    8    4    0.65475628E-02  0.29821192E-02
    1    5   -0.20364848E-01 -0.79667800E-03
    2    5    0.10687363E-01  0.12508565E-03
    3    5    0.12367488E-03  0.64257675E-03
    4    5    0.30676878E-02  0.84059620E-03
    5    5   -0.19278251E-01 -0.31276975E-03
    6    5   -0.64993480E-02 -0.35903421E-03
    7    5    0.38467631E-02 -0.16405357E-02
    8    5   -0.13017081E-02 -0.12217865E-01
    1    6   -0.10375194E-01 -0.10222830E-02
    2    6    0.11850804E-01 -0.11530414E-02
    3    6   -0.49458526E-03 -0.20559698E-02
    4    6   -0.34240611E-02  0.80407929E-03
    5    6    0.19423694E-01  0.15253158E-03
    6    6   -0.17838813E-01  0.31562627E-03
    7    6   -0.90531717E-02  0.99158729E-03
    8    6   -0.22797934E-01  0.60035991E-02
    1    7   -0.12619286E+00 -0.82261118E-02
    2    7    0.11806731E-01  0.18631396E-02
    3    7    0.34541975E-01  0.63681862E-02
    4    7   -0.15820133E-01 -0.39519853E-02
    5    7   -0.38890834E-02  0.10907897E-02
    6    7   -0.52655722E-01 -0.38901122E-02
    7    7   -0.12968438E-02  0.24516031E-03
    8    7    0.59883169E-02  0.44005564E-01
    1    8    0.24600365E+00  0.35799012E-01
    2    8   -0.85075810E-01  0.28681744E-02
    3    8    0.11022158E-01 -0.84312125E-02
    4    8    0.13236120E-01 -0.10642052E-01
    5    8    0.85292128E-01  0.26271422E-01
    6    8   -0.16518451E-01  0.32610158E-03
    7    8   -0.21951362E-01 -0.35857702E-01
    8    8   -0.18808551E-01 -0.22853421E-02

   -2    1    0
    1    1   -0.60708524E-02  0.21950220E-02
    2    1   -0.68911750E-01 -0.11595426E-02
    3    1    0.30894210E-02 -0.93661125E-03
    4    1   -0.12792151E-01 -0.17258005E-02
    5    1    0.13377311E-01  0.10455627E-02
    6    1   -0.85132765E-02 -0.11219401E-03
    7    1   -0.25551628E-03  0.50564858E-03
    8    1   -0.43769191E-02  0.25473577E-01
    1    2    0.44661122E-02  0.32473046E-03
    2    2    0.13107366E-01 -0.19610563E-02
    3    2    0.94097600E-02  0.31613388E-03
    4    2   -0.17500897E-01  0.57922184E-03
    5    2    0.19640080E-01  0.31268116E-03
    6    2   -0.13103666E-01  0.20486596E-02
    7    2   -0.14671378E-01 -0.99570183E-03
    8    2    0.26879530E-01  0.12793662E-01
    1    3    0.21781976E-01 -0.33188150E-02
    2    3    0.18807000E-01 -0.10265125E-02
    3    3   -0.15840023E-01 -0.24968400E-03
    4    3    0.12480765E-01  0.30110016E-03
    5    3   -0.18185160E-01  0.11868744E-02
    6    3   -0.57202411E-02 -0.80259871E-03
    7    3   -0.42031562E-02 -0.77462516E-03
    8    3   -0.17046673E-01 -0.45947488E-01
    1    4   -0.20410521E+00  0.11335114E-01
    2    4    0.16978254E-01  0.30271320E-03
    3    4    0.14805643E-01  0.90811557E-03
    4    4   -0.44412625E-02  0.57195636E-04
    5    4    0.35401564E-02  0.38194008E-04
    6    4   -0.55742171E-01  0.20132070E-02
    7    4    0.95292693E-02 -0.10399860E-02
    8    4    0.68226099E-02 -0.21609608E-01
    1    5   -0.87801820E-01 -0.11378323E-03
    2    5   -0.17152754E-01 -0.82977791E-03
    3    5    0.38151142E-02  0.33772011E-03
    4    5    0.43868636E-02  0.11733515E-03
    5    5   -0.55861723E-02  0.91127161E-03
    6    5   -0.38871421E-02  0.81105811E-03
    7    5    0.77563326E-02 -0.75902030E-03
    8    5   -0.48634247E-01  0.19391914E-01
    1    6    0.87700416E-01 -0.23250149E-02
    2    6   -0.93328136E-01  0.97714670E-03
    3    6   -0.12438346E-01  0.23799463E-03
    4    6    0.20182860E-01  0.22845516E-03
    5    6    0.67188753E-01 -0.77605730E-03
    6    6    0.14883040E-01 -0.17176797E-02
    7    6    0.14268785E-02  0.13079489E-02
    8    6   -0.21852312E-01 -0.34235569E-01
    1    7    0.13551711E-01  0.28184581E-02
    2    7   -0.11364373E-01 -0.23142290E-02
    3    7    0.23974410E-01  0.40484465E-02
    4    7    0.48412891E-01  0.73993170E-02
    5    7    0.51969498E-01  0.29883163E-02
    6    7    0.11863419E-01  0.19479522E-02
    7    7   -0.18611055E-01 -0.21798093E-02
    8    7    0.71333335E-01 -0.89461090E-02
    1    8   -0.10209907E+00 -0.34867892E-03
    2    8   -0.43980932E-01 -0.26454665E-01
    3    8    0.13076597E+00  0.94141182E-02
    4    8    0.19929800E-01  0.14096742E-01
    5    8   -0.15346340E+00 -0.13753396E-02
    6    8    0.26778576E-01  0.25616713E-01
    7    8   -0.40679207E-01  0.31277821E-01
    8    8   -0.75182460E-02  0.29447397E-02

   -2    1    1
    1    1    0.16074092E-01 -0.26038256E-03
    2    1    0.66898638E-02 -0.19064418E-03
    3    1    0.21556516E-02  0.38902726E-03
    4    1    0.14432165E-01  0.16572032E-02
    5    1   -0.22246732E-01 -0.21014096E-02
    6    1   -0.91444077E-02 -0.10594892E-03
    7    1   -0.10785335E-01  0.16981820E-02
    8    1    0.44032793E-01 -0.33345091E-01
    1    2   -0.86284597E-02  0.14843336E-04
    2    2   -0.76126318E-02  0.55296761E-03
    3    2   -0.50877779E-01 -0.43473132E-02
    4    2   -0.21060734E-01 -0.49910721E-03
    5    2    0.76014100E-02 -0.11047507E-03
    6    2   -0.17591424E-01 -0.12384519E-02
    7    2    0.13273129E-01 -0.25085456E-04
    8    2    0.62628793E-01 -0.34745739E-01
    1    3    0.18505208E-02 -0.54328558E-03
    2    3   -0.97545259E-02  0.11277710E-02
    3    3   -0.18073329E-01 -0.52362228E-03
    4    3   -0.16746657E-01 -0.22175724E-03
    5    3   -0.16228149E-01  0.21492621E-02
    6    3   -0.35025890E-02 -0.29021888E-04
    7    3    0.43078500E-01 -0.51048909E-02
    8    3   -0.47124356E-01  0.42635776E-01
    1    4    0.93822977E-01 -0.58133121E-02
    2    4    0.12104362E-01 -0.82238570E-03
    3    4   -0.11458874E-01  0.60349607E-03
    4    4    0.11841106E-01 -0.33664781E-03
    5    4    0.56878465E-01 -0.30459100E-02
    6    4    0.15320967E-01  0.30514874E-03
    7    4   -0.21371430E-01  0.12120057E-02
    8    4   -0.17542478E-01  0.25342131E-01
    1    5    0.99806785E-02  0.10864427E-02
    2    5    0.55164018E-02  0.10816675E-02
    3    5    0.39249793E-02 -0.10290832E-02
    4    5    0.83724901E-02 -0.29072047E-03
    5    5   -0.55765209E-02  0.20722571E-03
    6    5   -0.24574167E-02 -0.19629842E-02
    7    5   -0.29221429E-01  0.43686515E-02
    8    5   -0.94923195E-02 -0.19785014E-02
    1    6    0.84192093E-01 -0.47194370E-03
    2    6    0.16222248E-01 -0.27168519E-03
    3    6    0.10860875E-01  0.39685714E-03
    4    6   -0.58637216E-01 -0.33894459E-02
    5    6   -0.55484455E-01  0.14457400E-02
    6    6   -0.77731541E-02  0.48562388E-03
    7    6    0.80777110E-02 -0.12130507E-02
    8    6   -0.27394464E-01  0.59597738E-01
    1    7   -0.11583191E-01 -0.26772237E-02
    2    7   -0.24607687E-02 -0.14303621E-02
    3    7    0.33791764E-01  0.41557093E-02
    4    7   -0.70968874E-02 -0.13050442E-03
    5    7   -0.47239354E-02 -0.14887202E-02
    6    7   -0.60237180E-02  0.56912942E-03
    7    7   -0.17252262E-01 -0.64635116E-04
    8    7    0.14745658E-01 -0.28899031E-01
    1    8    0.90353260E-02  0.30284550E-01
    2    8    0.70098918E-02  0.28122000E-01
    3    8   -0.37684127E-01 -0.37340960E-01
    4    8   -0.15147526E-02 -0.24145115E-01
    5    8    0.10648309E+00 -0.35565520E-03
    6    8   -0.24142941E-01 -0.36242249E-01
    7    8    0.39102622E-02  0.28404733E-01
    8    8   -0.17045093E-02 -0.60529075E-04

   -2    1    2
    1    1   -0.18509773E-01 -0.16387674E-02
    2    1   -0.42065082E-02  0.46818929E-04
    3    1    0.67149618E-02  0.12345897E-02
    4    1   -0.17124403E-01 -0.13654952E-02
    5    1    0.71837097E-02  0.12508905E-03
    6    1   -0.53105622E-02  0.49796763E-03
    7    1    0.19825096E-01 -0.29138593E-02
    8    1   -0.73557021E-01  0.43099597E-02
    1    2    0.37623161E-02 -0.67837897E-03
    2    2   -0.49717963E-02  0.74131945E-03
    3    2    0.13124907E-01  0.49771906E-03
    4    2   -0.16733475E-01 -0.14253561E-02
    5    2   -0.16751564E-01  0.65477171E-03
    6    2   -0.17830088E-02 -0.45150847E-03
    7    2   -0.61504187E-02  0.27734461E-02
    8    2   -0.33802378E-01  0.17334302E-01
    1    3    0.16607525E-01  0.11965864E-02
    2    3    0.38058383E-02  0.16132410E-02
    3    3   -0.51691214E-02 -0.18813207E-04
    4    3    0.15125739E-01 -0.10681703E-02
    5    3   -0.10180144E-01  0.13822630E-02
    6    3   -0.16378996E-01 -0.11715138E-02
    7    3    0.37583134E-03  0.69730828E-03
    8    3    0.11975208E-01  0.65439951E-02
    1    4   -0.12762502E-01  0.21711003E-02
    2    4   -0.90659115E-03 -0.41122170E-03
    3    4    0.12860794E-01 -0.53935471E-03
    4    4   -0.17127721E-01  0.18255403E-03
    5    4   -0.69311392E-01  0.37560100E-02
    6    4   -0.85360147E-03 -0.34279684E-03
    7    4   -0.54657744E-02 -0.38032788E-03
    8    4    0.24636482E-01 -0.14039915E-01
    1    5    0.69632349E-02 -0.97359011E-03
    2    5    0.39438278E-03 -0.81021010E-03
    3    5   -0.13013127E-02 -0.16212061E-03
    4    5   -0.45226187E-02 -0.10346492E-03
    5    5   -0.17946219E-01 -0.96107105E-03
    6    5    0.26508216E-02  0.11507323E-02
    7    5    0.10609971E-01  0.11063307E-03
    8    5   -0.27399201E-01  0.54600019E-02
    1    6   -0.11039512E-01  0.16075828E-02
    2    6   -0.38075504E-03  0.15143500E-05
    3    6   -0.12029482E-01  0.67527075E-03
    4    6   -0.69671344E-02 -0.35531084E-04
    5    6   -0.41830097E-02 -0.54985985E-03
    6    6   -0.41487368E-02  0.37664658E-03
    7    6    0.18719360E-01 -0.29062853E-02
    8    6    0.51283182E-01 -0.27212420E-01
    1    7   -0.49441236E-02 -0.89666645E-03
    2    7   -0.11288030E-01  0.15313103E-02
    3    7   -0.27967185E-02 -0.83404271E-04
    4    7    0.10074734E-01  0.81101049E-03
    5    7   -0.51419785E-02 -0.57588401E-03
    6    7    0.67250538E-02 -0.18478698E-02
    7    7   -0.63893357E-02  0.13565885E-02
    8    7   -0.10039634E-01 -0.12726107E-01
    1    8    0.70078363E-02 -0.38071025E-01
    2    8    0.70942718E-02 -0.21652946E-01
    3    8   -0.48883738E-02  0.29376934E-01
    4    8    0.48716836E-02  0.15781528E-01
    5    8    0.16864571E-01 -0.21718250E-01
    6    8   -0.21853569E-01  0.24349671E-01
    7    8    0.34073668E-01  0.16748320E-01
    8    8   -0.16496915E-01 -0.38455440E-04

   -2    2   -2
    1    1    0.57162432E-02  0.14028438E-17
    2    1    0.19530666E-02 -0.32698056E-03
    3    1   -0.10182152E-01 -0.29192329E-02
    4    1    0.15191326E-03 -0.77202948E-03
    5    1    0.61815302E-02 -0.68028651E-03
    6    1   -0.33170639E-03 -0.97366408E-04
    7    1   -0.12310948E-01  0.28333858E-02
    8    1   -0.89175873E-02  0.85271334E-02
    1    2    0.19530666E-02  0.32698056E-03
    2    2    0.30713728E-02  0.12269630E-16
    3    2    0.19854201E-02 -0.22124400E-02
    4    2    0.57308467E-02  0.27856435E-03
    5    2    0.12384598E-01  0.19062858E-03
    6    2   -0.14510457E-04 -0.33776472E-03
    7    2   -0.13353421E-01  0.20012631E-02
    8    2    0.89991900E-02  0.89230931E-03
    1    3   -0.10182152E-01  0.29192329E-02
    2    3    0.19854201E-02  0.22124400E-02
    3    3    0.45119458E-02 -0.14938504E-17
    4    3    0.11819828E-02 -0.62844843E-03
    5    3    0.11638687E-01  0.27807400E-03
    6    3   -0.49286085E-02 -0.24946569E-02
    7    3   -0.25674014E-02  0.95519668E-03
    8    3   -0.94630976E-02 -0.32538215E-02
    1    4    0.15191326E-03  0.77202948E-03
    2    4    0.57308467E-02 -0.27856435E-03
    3    4    0.11819828E-02  0.62844843E-03
    4    4    0.49036542E-02 -0.91745174E-17
    5    4    0.99712478E-03  0.28942080E-03
    6    4    0.44449643E-02 -0.75595657E-04
    7    4   -0.12110485E-02 -0.11122034E-02
    8    4    0.15799399E-01 -0.47601840E-02
    1    5    0.61815302E-02  0.68028651E-03
    2    5    0.12384598E-01 -0.19062858E-03
    3    5    0.11638687E-01 -0.27807400E-03
    4    5    0.99712478E-03 -0.28942080E-03
    5    5    0.55177797E-02  0.18039438E-16
    6    5   -0.35348569E-02  0.34069470E-03
    7    5   -0.23217428E-02  0.13641475E-02
    8    5   -0.82464597E-02  0.19133026E-01
    1    6   -0.33170639E-03  0.97366408E-04
    2    6   -0.14510457E-04  0.33776472E-03
    3    6   -0.49286085E-02  0.24946569E-02
    4    6    0.44449643E-02  0.75595657E-04
    5    6   -0.35348569E-02 -0.34069470E-03
    6    6    0.40537708E-02  0.10106340E-16
    7    6    0.86463998E-02 -0.47981593E-03
    8    6   -0.42772313E-02 -0.29898560E-02
    1    7   -0.12310948E-01 -0.28333858E-02
    2    7   -0.13353421E-01 -0.20012631E-02
    3    7   -0.25674014E-02 -0.95519668E-03
    4    7   -0.12110485E-02  0.11122034E-02
    5    7   -0.23217428E-02 -0.13641475E-02
    6    7    0.86463998E-02  0.47981593E-03
    7    7    0.14920619E-02 -0.16848588E-16
    8    7    0.74396664E-03 -0.33196265E-01
    1    8   -0.89175873E-02 -0.85271334E-02
    2    8    0.89991900E-02 -0.89230931E-03
    3    8   -0.94630976E-02  0.32538215E-02
    4    8    0.15799399E-01  0.47601840E-02
    5    8   -0.82464597E-02 -0.19133026E-01
    6    8   -0.42772313E-02  0.29898560E-02
    7    8    0.74396664E-03  0.33196265E-01
    8    8    0.51988220E-02  0.16786688E-16

   -2    2   -1
    1    1   -0.17759237E-01 -0.14007360E-02
    2    1   -0.17897280E-01 -0.36045158E-03
    3    1    0.12330372E-02  0.19029797E-02
    4    1   -0.12498696E-01  0.26104749E-03
    5    1   -0.11956188E-02 -0.69076406E-03
    6    1   -0.96900294E-02  0.13491919E-05
    7    1    0.59244021E-03 -0.93329317E-04
    8    1   -0.13078582E-03 -0.23148617E-01
    1    2    0.86177185E-02 -0.25644905E-03
    2    2   -0.17611264E-01  0.10898251E-02
    3    2   -0.49687094E-02  0.50878483E-03
    4    2    0.65648454E-02 -0.32108298E-03
    5    2    0.92938236E-02 -0.15828063E-02
    6    2    0.15970433E-01 -0.98575017E-03
    7    2   -0.14160313E-03  0.19196068E-02
    8    2   -0.12437204E-01 -0.90673260E-02
    1    3    0.22911198E-01 -0.68944080E-03
    2    3    0.70675223E-02 -0.98890271E-03
    3    3   -0.50406415E-02  0.32018118E-03
    4    3    0.90277413E-02 -0.85441321E-03
    5    3    0.13111053E-01 -0.74794992E-03
    6    3    0.13574987E-01  0.67547903E-03
    7    3    0.11073865E-02  0.10362087E-02
    8    3    0.79614954E-02  0.30579574E-01
    1    4   -0.14855521E-01  0.87456909E-03
    2    4    0.84264548E-02 -0.10793973E-02
    3    4    0.55619295E-02 -0.16233680E-03
    4    4   -0.19376942E-01  0.39042703E-03
    5    4    0.36136820E-02  0.86173607E-04
    6    4   -0.69292801E-02  0.91605073E-03
    7    4    0.27798236E-02 -0.74747202E-03
    8    4    0.29237785E-02  0.12303215E-01
    1    5   -0.14793276E-01  0.44789357E-03
    2    5   -0.22034521E-01  0.31890926E-03
    3    5    0.11088381E-01  0.98382712E-03
    4    5   -0.17267568E-01 -0.88489674E-03
    5    5   -0.48764293E-02 -0.10516458E-02
    6    5    0.10367125E-01 -0.44948597E-03
    7    5   -0.17143021E-02  0.81208129E-06
    8    5    0.23195619E-03 -0.16058923E-01
    1    6   -0.96467272E-02  0.75526637E-03
    2    6    0.12967752E-01 -0.71296638E-03
    3    6    0.11760905E-02 -0.14680726E-02
    4    6   -0.37901901E-02 -0.18835150E-04
    5    6   -0.51135387E-03  0.12915618E-02
    6    6   -0.18713025E-01  0.89518394E-03
    7    6   -0.30828986E-02 -0.12365223E-02
    8    6    0.51561590E-02  0.17168542E-01
    1    7    0.87926707E-02 -0.17557383E-02
    2    7    0.12937779E-01  0.27109396E-02
    3    7   -0.29824632E-02 -0.27140886E-03
    4    7   -0.22896398E-02 -0.95418678E-03
    5    7   -0.16407049E-01 -0.53539860E-03
    6    7    0.74756049E-02 -0.62444545E-03
    7    7   -0.27114988E-02  0.14743565E-02
    8    7   -0.61192653E-01  0.18481182E-01
    1    8   -0.63925465E-01 -0.34839085E-02
    2    8   -0.27519627E-01  0.16979717E-01
    3    8   -0.80986288E-02  0.58912569E-02
    4    8   -0.24328759E-01 -0.16939549E-01
    5    8   -0.11251672E-01  0.10320330E-01
    6    8   -0.24465293E-01 -0.27026532E-01
    7    8    0.15005866E-01 -0.12489140E-01
    8    8   -0.46705816E-02 -0.17175919E-02

   -2    2    0
    1    1   -0.17081178E-01 -0.83070500E-17
    2    1    0.54443876E-01  0.91921409E-03
    3    1    0.58105641E-02  0.17961347E-03
    4    1    0.92705407E-01  0.58020749E-02
    5    1    0.11159287E-01  0.18795117E-02
    6    1   -0.16474234E-01 -0.60383498E-03
    7    1   -0.11484714E-01  0.19752647E-03
    8    1   -0.35811533E-01  0.31220549E-01
    1    2    0.54443876E-01 -0.91921409E-03
    2    2   -0.12165082E-01 -0.95263316E-17
    3    2    0.86066961E-02  0.10767129E-02
    4    2    0.63307639E-02 -0.13420139E-03
    5    2    0.78634288E-02  0.10373055E-02
    6    2   -0.15603360E-01  0.62039676E-03
    7    2   -0.28874252E-02 -0.71882571E-03
    8    2    0.24126933E-02  0.23032169E-01
    1    3    0.58105641E-02 -0.17961347E-03
    2    3    0.86066961E-02 -0.10767129E-02
    3    3   -0.37877031E-02  0.90313888E-17
    4    3   -0.16494896E-01  0.12612516E-02
    5    3    0.95419755E-02 -0.21191186E-02
    6    3   -0.11699580E-01  0.10166790E-02
    7    3   -0.20880363E-02 -0.16460688E-02
    8    3    0.47297783E-01 -0.39422605E-01
    1    4    0.92705407E-01 -0.58020749E-02
    2    4    0.63307639E-02  0.13420139E-03
    3    4   -0.16494896E-01 -0.12612516E-02
    4    4   -0.11918956E-01  0.91005228E-17
    5    4   -0.10968531E-01 -0.22416541E-03
    6    4    0.70920135E-01 -0.41949245E-02
    7    4   -0.81799281E-02  0.22724164E-02
    8    4    0.24490935E-01 -0.26038739E-01
    1    5    0.11159287E-01 -0.18795117E-02
    2    5    0.78634288E-02 -0.10373055E-02
    3    5    0.95419755E-02  0.21191186E-02
    4    5   -0.10968531E-01  0.22416541E-03
    5    5   -0.56116519E-02  0.15852177E-16
    6    5    0.16934038E-01  0.13865201E-02
    7    5   -0.14412834E-01  0.28048920E-03
    8    5   -0.93449179E-02 -0.69048271E-03
    1    6   -0.16474234E-01  0.60383498E-03
    2    6   -0.15603360E-01 -0.62039676E-03
    3    6   -0.11699580E-01 -0.10166790E-02
    4    6    0.70920135E-01  0.41949245E-02
    5    6    0.16934038E-01 -0.13865201E-02
    6    6   -0.11871544E-01 -0.32785027E-17
    7    6   -0.49425120E-03  0.95999465E-03
    8    6    0.19645465E-03 -0.36820536E-01
    1    7   -0.11484714E-01 -0.19752647E-03
    2    7   -0.28874252E-02  0.71882571E-03
    3    7   -0.20880363E-02  0.16460688E-02
    4    7   -0.81799281E-02 -0.22724164E-02
    5    7   -0.14412834E-01 -0.28048920E-03
    6    7   -0.49425120E-03 -0.95999465E-03
    7    7   -0.44058426E-02  0.17575794E-16
    8    7   -0.12271154E+00  0.21653244E-01
    1    8   -0.35811533E-01 -0.31220549E-01
    2    8    0.24126933E-02 -0.23032169E-01
    3    8    0.47297783E-01  0.39422605E-01
    4    8    0.24490935E-01  0.26038739E-01
    5    8   -0.93449179E-02  0.69048271E-03
    6    8    0.19645465E-03  0.36820536E-01
    7    8   -0.12271154E+00 -0.21653244E-01
    8    8   -0.10688872E-01 -0.11306949E-16

   -2    2    1
    1    1   -0.17759237E-01  0.14007360E-02
    2    1    0.86177185E-02  0.25644905E-03
    3    1    0.22911198E-01  0.68944080E-03
    4    1   -0.14855521E-01 -0.87456909E-03
    5    1   -0.14793276E-01 -0.44789357E-03
    6    1   -0.96467272E-02 -0.75526637E-03
    7    1    0.87926707E-02  0.17557383E-02
    8    1   -0.63925465E-01  0.34839085E-02
    1    2   -0.17897280E-01  0.36045158E-03
    2    2   -0.17611264E-01 -0.10898251E-02
    3    2    0.70675223E-02  0.98890271E-03
    4    2    0.84264548E-02  0.10793973E-02
    5    2   -0.22034521E-01 -0.31890926E-03
    6    2    0.12967752E-01  0.71296638E-03
    7    2    0.12937779E-01 -0.27109396E-02
    8    2   -0.27519627E-01 -0.16979717E-01
    1    3    0.12330372E-02 -0.19029797E-02
    2    3   -0.49687094E-02 -0.50878483E-03
    3    3   -0.50406415E-02 -0.32018118E-03
    4    3    0.55619295E-02  0.16233680E-03
    5    3    0.11088381E-01 -0.98382712E-03
    6    3    0.11760905E-02  0.14680726E-02
    7    3   -0.29824632E-02  0.27140886E-03
    8    3   -0.80986288E-02 -0.58912569E-02
    1    4   -0.12498696E-01 -0.26104749E-03
    2    4    0.65648454E-02  0.32108298E-03
    3    4    0.90277413E-02  0.85441321E-03
    4    4   -0.19376942E-01 -0.39042703E-03
    5    4   -0.17267568E-01  0.88489674E-03
    6    4   -0.37901901E-02  0.18835150E-04
    7    4   -0.22896398E-02  0.95418678E-03
    8    4   -0.24328759E-01  0.16939549E-01
    1    5   -0.11956188E-02  0.69076406E-03
    2    5    0.92938236E-02  0.15828063E-02
    3    5    0.13111053E-01  0.74794992E-03
    4    5    0.36136820E-02 -0.86173607E-04
    5    5   -0.48764293E-02  0.10516458E-02
    6    5   -0.51135387E-03 -0.12915618E-02
    7    5   -0.16407049E-01  0.53539860E-03
    8    5   -0.11251672E-01 -0.10320330E-01
    1    6   -0.96900294E-02 -0.13491919E-05
    2    6    0.15970433E-01  0.98575017E-03
    3    6    0.13574987E-01 -0.67547903E-03
    4    6   -0.69292801E-02 -0.91605073E-03
    5    6    0.10367125E-01  0.44948597E-03
    6    6   -0.18713025E-01 -0.89518394E-03
    7    6    0.74756049E-02  0.62444545E-03
    8    6   -0.24465293E-01  0.27026532E-01
    1    7    0.59244021E-03  0.93329317E-04
    2    7   -0.14160313E-03 -0.19196068E-02
    3    7    0.11073865E-02 -0.10362087E-02
    4    7    0.27798236E-02  0.74747202E-03
    5    7   -0.17143021E-02 -0.81208129E-06
    6    7   -0.30828986E-02  0.12365223E-02
    7    7   -0.27114988E-02 -0.14743565E-02
    8    7    0.15005866E-01  0.12489140E-01
    1    8   -0.13078582E-03  0.23148617E-01
    2    8   -0.12437204E-01  0.90673260E-02
    3    8    0.79614954E-02 -0.30579574E-01
    4    8    0.29237785E-02 -0.12303215E-01
    5    8    0.23195619E-03  0.16058923E-01
    6    8    0.51561590E-02 -0.17168542E-01
    7    8   -0.61192653E-01 -0.18481182E-01
    8    8   -0.46705816E-02  0.17175919E-02

   -2    2    2
    1    1    0.57162432E-02  0.96014756E-17
    2    1    0.19530666E-02 -0.32698056E-03
    3    1   -0.10182152E-01 -0.29192329E-02
    4    1    0.15191326E-03 -0.77202948E-03
    5    1    0.61815302E-02 -0.68028651E-03
    6    1   -0.33170639E-03 -0.97366408E-04
    7    1   -0.12310948E-01  0.28333858E-02
    8    1   -0.89175873E-02  0.85271334E-02
    1    2    0.19530666E-02  0.32698056E-03
    2    2    0.30713728E-02  0.19468273E-16
    3    2    0.19854201E-02 -0.22124400E-02
    4    2    0.57308467E-02  0.27856435E-03
    5    2    0.12384598E-01  0.19062858E-03
    6    2   -0.14510457E-04 -0.33776472E-03
    7    2   -0.13353421E-01  0.20012631E-02
    8    2    0.89991900E-02  0.89230931E-03
    1    3   -0.10182152E-01  0.29192329E-02
    2    3    0.19854201E-02  0.22124400E-02
    3    3    0.45119458E-02  0.19406943E-17
    4    3    0.11819828E-02 -0.62844843E-03
    5    3    0.11638687E-01  0.27807400E-03
    6    3   -0.49286085E-02 -0.24946569E-02
    7    3   -0.25674014E-02  0.95519668E-03
    8    3   -0.94630976E-02 -0.32538215E-02
    1    4    0.15191326E-03  0.77202948E-03
    2    4    0.57308467E-02 -0.27856435E-03
    3    4    0.11819828E-02  0.62844843E-03
    4    4    0.49036542E-02 -0.10716838E-17
    5    4    0.99712478E-03  0.28942080E-03
    6    4    0.44449643E-02 -0.75595657E-04
    7    4   -0.12110485E-02 -0.11122034E-02
    8    4    0.15799399E-01 -0.47601840E-02
    1    5    0.61815302E-02  0.68028651E-03
    2    5    0.12384598E-01 -0.19062858E-03
    3    5    0.11638687E-01 -0.27807400E-03
    4    5    0.99712478E-03 -0.28942080E-03
    5    5    0.55177797E-02  0.21690669E-16
    6    5   -0.35348569E-02  0.34069470E-03
    7    5   -0.23217428E-02  0.13641475E-02
    8    5   -0.82464597E-02  0.19133026E-01
    1    6   -0.33170639E-03  0.97366408E-04
    2    6   -0.14510457E-04  0.33776472E-03
    3    6   -0.49286085E-02  0.24946569E-02
    4    6    0.44449643E-02  0.75595657E-04
    5    6   -0.35348569E-02 -0.34069470E-03
    6    6    0.40537708E-02  0.17852142E-16
    7    6    0.86463998E-02 -0.47981593E-03
    8    6   -0.42772313E-02 -0.29898560E-02
    1    7   -0.12310948E-01 -0.28333858E-02
    2    7   -0.13353421E-01 -0.20012631E-02
    3    7   -0.25674014E-02 -0.95519668E-03
    4    7   -0.12110485E-02  0.11122034E-02
    5    7   -0.23217428E-02 -0.13641475E-02
    6    7    0.86463998E-02  0.47981593E-03
    7    7    0.14920619E-02 -0.14735615E-16
    8    7    0.74396664E-03 -0.33196265E-01
    1    8   -0.89175873E-02 -0.85271334E-02
    2    8    0.89991900E-02 -0.89230931E-03
    3    8   -0.94630976E-02  0.32538215E-02
    4    8    0.15799399E-01  0.47601840E-02
    5    8   -0.82464597E-02 -0.19133026E-01
    6    8   -0.42772313E-02  0.29898560E-02
    7    8    0.74396664E-03  0.33196265E-01
    8    8    0.51988220E-02  0.20728987E-16

   -1   -2    1
    1    1   -0.62559230E-02 -0.32002878E-03
    2    1   -0.18021641E-01  0.70691894E-03
    3    1    0.16295952E-01  0.30277655E-02
    4    1   -0.33072147E-01 -0.25794057E-02
    5    1    0.14113506E-01  0.68069091E-03
    6    1   -0.10711532E-01 -0.57943015E-04
    7    1    0.13104860E-01 -0.25166816E-02
    8    1   -0.21253056E-01 -0.82744598E-02
    1    2   -0.68285604E-02 -0.12809043E-03
    2    2   -0.16499425E-01  0.51656958E-03
    3    2   -0.16861995E-01  0.16310842E-02
    4    2    0.94002254E-02  0.40745980E-03
    5    2    0.76610085E-02 -0.50059234E-03
    6    2    0.11505467E-01 -0.12301291E-03
    7    2    0.89394129E-01 -0.10648871E-01
    8    2    0.99305073E-02 -0.42806081E-02
    1    3    0.88223618E-02 -0.16830215E-02
    2    3    0.79675328E-02 -0.30400756E-02
    3    3   -0.18608659E-01 -0.13130973E-02
    4    3    0.43003042E-02  0.48822611E-03
    5    3    0.98514340E-02 -0.13026697E-02
    6    3   -0.60333977E-02  0.29716882E-02
    7    3    0.17064518E-01 -0.35194475E-02
    8    3    0.53262766E-02  0.43309207E-02
    1    4   -0.33072913E-01  0.95282601E-03
    2    4   -0.19107239E-01  0.51069081E-03
    3    4    0.94643294E-02 -0.11145041E-02
    4    4   -0.56015001E-02  0.37442629E-04
    5    4   -0.69104850E-02  0.19935941E-03
    6    4   -0.31578354E-02 -0.61525156E-03
    7    4    0.90913833E-02  0.45011012E-03
    8    4   -0.67504331E-03 -0.32932596E-02
    1    5    0.14326157E-01 -0.15805182E-02
    2    5   -0.97860493E-02  0.50545249E-03
    3    5    0.80958235E-02  0.22817653E-02
    4    5   -0.52332253E-02  0.12804164E-04
    5    5   -0.60852691E-02  0.26389825E-04
    6    5    0.92807375E-02 -0.41774493E-03
    7    5    0.10234034E-01 -0.22991549E-02
    8    5   -0.18764854E-01 -0.20874393E-01
    1    6   -0.13976666E-01  0.17435904E-02
    2    6    0.13791203E-01 -0.65259647E-03
    3    6   -0.92101407E-02 -0.47757543E-02
    4    6   -0.90298293E-02 -0.10811475E-02
    5    6    0.19448166E-01  0.35458522E-04
    6    6   -0.17449963E-01  0.64285387E-03
    7    6    0.54750213E-01 -0.52849610E-02
    8    6    0.10947572E-01  0.85733567E-02
    1    7   -0.11260653E-01  0.48253973E-03
    2    7   -0.98470572E-02 -0.25402951E-03
    3    7    0.15127703E-01  0.27333369E-02
    4    7   -0.22921463E-02 -0.14395418E-02
    5    7   -0.17210566E-02  0.12374700E-02
    6    7    0.14237448E-02  0.19844556E-03
    7    7   -0.14571386E-01 -0.11387491E-04
    8    7   -0.55834448E-02  0.32379076E-01
    1    8   -0.19299068E-01  0.78824820E-02
    2    8    0.33320695E-01  0.24778191E-02
    3    8    0.29966305E-01 -0.12258867E-01
    4    8    0.11237420E-01 -0.72166367E-02
    5    8   -0.17153107E-01  0.16438505E-01
    6    8   -0.14104816E-01 -0.34889478E-02
    7    8    0.37591735E-02 -0.48230184E-01
    8    8   -0.56874937E-02  0.42125785E-03

   -1   -2    2
    1    1   -0.18428955E-01  0.16563058E-02
    2    1    0.44807832E-02 -0.21739521E-03
    3    1   -0.60406849E-02 -0.31634894E-02
    4    1   -0.13066284E-01 -0.16120962E-02
    5    1    0.11061210E-02  0.99032075E-03
    6    1   -0.10997206E-01 -0.43817222E-03
    7    1   -0.14920068E-01  0.16815839E-02
    8    1    0.43499768E-02  0.22474352E-01
    1    2   -0.95823501E-02 -0.33547408E-03
    2    2   -0.49809666E-02 -0.13864717E-02
    3    2    0.29988271E-02 -0.87543268E-03
    4    2   -0.53512102E-03  0.61041943E-03
    5    2    0.11630434E-01  0.74564128E-03
    6    2   -0.79292929E-03  0.12074342E-02
    7    2   -0.92575726E-02 -0.13766308E-02
    8    2    0.56204408E-02  0.95390192E-02
    1    3    0.19520072E-01 -0.26020935E-02
    2    3   -0.13086173E-01  0.10998947E-02
    3    3   -0.18682763E-01  0.30812039E-03
    4    3    0.12221620E-01  0.87255516E-04
    5    3    0.78373819E-02 -0.76525318E-03
    6    3    0.22002017E-01 -0.31636233E-02
    7    3    0.14341905E-01 -0.27876102E-02
    8    3   -0.94413357E-02 -0.23624522E-01
    1    4   -0.16072819E-01  0.13926480E-02
    2    4   -0.16808676E-01  0.17147122E-02
    3    4    0.10021376E-01  0.13469121E-02
    4    4   -0.17111076E-01 -0.41067093E-03
    5    4    0.16951467E-02 -0.25144453E-03
    6    4   -0.72040095E-02 -0.44797962E-03
    7    4   -0.61681383E-02  0.15198417E-02
    8    4   -0.18762530E-02 -0.13553423E-03
    1    5   -0.18041894E-01 -0.35888082E-04
    2    5    0.87479398E-02 -0.78075325E-03
    3    5    0.78517972E-02  0.12234492E-04
    4    5   -0.17211281E-01 -0.81014027E-03
    5    5   -0.44884570E-02  0.11862665E-02
    6    5   -0.14645509E-01  0.85605169E-03
    7    5    0.17015141E-01 -0.14181209E-02
    8    5   -0.29647311E-01  0.20912579E-01
    1    6   -0.13954828E-01 -0.10829509E-02
    2    6   -0.19425862E-02  0.87713010E-03
    3    6   -0.11443708E-01  0.20435366E-02
    4    6   -0.86441324E-03  0.66631706E-03
    5    6   -0.37245133E-02 -0.14138216E-02
    6    6   -0.37366209E-02 -0.10742399E-02
    7    6    0.55889668E-02  0.15833126E-02
    8    6   -0.10922671E-01 -0.22458179E-01
    1    7    0.25493009E-02  0.23865739E-02
    2    7    0.25535569E-01  0.85585270E-03
    3    7    0.13744481E-01  0.15131976E-02
    4    7    0.15247487E-01  0.29281623E-02
    5    7    0.94366276E-02 -0.29853879E-03
    6    7   -0.13039497E-01  0.29102662E-03
    7    7   -0.19727126E-01 -0.14160707E-02
    8    7    0.35509837E-01 -0.15460459E-01
    1    8   -0.11631391E+00 -0.73803946E-02
    2    8   -0.69028659E-02 -0.15309229E-01
    3    8    0.26907712E-01 -0.44154425E-02
    4    8    0.50258581E-02  0.14093639E-01
    5    8    0.20690543E-01 -0.11468120E-01
    6    8   -0.90307864E-01  0.23639084E-01
    7    8   -0.14888199E-01  0.15427082E-01
    8    8   -0.36036540E-02  0.11367611E-02

   -1   -1   -1
    1    1    0.66163619E-01  0.30872281E-02
    2    1    0.15979336E-01  0.24162490E-02
    3    1   -0.86969763E-02 -0.16267151E-02
    4    1   -0.25580276E-01 -0.26162720E-02
    5    1    0.10872578E-01  0.31333254E-03
    6    1    0.15544585E-01 -0.11961565E-02
    7    1    0.82851707E-01 -0.47848439E-02
    8    1   -0.49026676E-01 -0.28422391E-06
    1    2    0.55371032E-01 -0.84293290E-03
    2    2    0.65453777E-01 -0.18564943E-02
    3    2    0.17792453E-01  0.12939178E-02
    4    2    0.95278181E-02  0.13205741E-02
    5    2    0.14655720E-01 -0.51823168E-03
    6    2    0.26677082E-01  0.14193281E-02
    7    2   -0.17232033E-01  0.44672147E-03
    8    2    0.19014444E-01 -0.16507608E-01
    1    3   -0.10962244E-01 -0.62206702E-03
    2    3    0.55165525E-01 -0.53366312E-02
    3    3    0.65550836E-01 -0.17918670E-03
    4    3   -0.15642641E-01  0.15315327E-02
    5    3    0.12281453E+00 -0.97265468E-02
    6    3   -0.78744358E-02  0.23399584E-02
    7    3    0.23751639E-01 -0.49497909E-02
    8    3   -0.70238731E-02 -0.60615232E-02
    1    4    0.20058225E-01 -0.25643861E-02
    2    4    0.10792673E-01 -0.10772953E-02
    3    4   -0.24808914E-01  0.28453365E-03
    4    4    0.64431972E-01  0.19552275E-03
    5    4   -0.50423941E-01  0.25346712E-02
    6    4    0.88058125E-02 -0.98420046E-03
    7    4   -0.54013365E-01  0.82772862E-02
    8    4   -0.54602513E-02  0.84239387E-02
    1    5    0.70520047E-02  0.15706162E-02
    2    5    0.81042584E-04  0.26649802E-03
    3    5    0.10040134E-01  0.74658072E-03
    4    5   -0.49867657E-01 -0.28000231E-02
    5    5    0.64754724E-01  0.69299993E-03
    6    5   -0.54776288E-01  0.13861980E-03
    7    5   -0.58162149E-01  0.39357568E-02
    8    5    0.97297350E-02  0.12316089E-02
    1    6    0.23201182E-01  0.93187429E-04
    2    6   -0.19832473E-01  0.26381969E-02
    3    6   -0.12815287E-01 -0.20701425E-02
    4    6    0.10738672E-01 -0.10604205E-02
    5    6   -0.15197738E-01  0.11771610E-02
    6    6    0.64502412E-01 -0.13491150E-02
    7    6    0.25423931E-01 -0.17056680E-02
    8    6   -0.39886083E-01  0.19160195E-01
    1    7   -0.11662470E-01  0.57138935E-03
    2    7   -0.15448188E-02 -0.33673749E-02
    3    7   -0.16184410E-01 -0.41353411E-02
    4    7   -0.15901527E-01 -0.16919323E-02
    5    7   -0.13710854E-01 -0.67334265E-03
    6    7   -0.15778115E-01  0.66962704E-03
    7    7    0.66711979E-01 -0.23758292E-02
    8    7    0.25442059E-01  0.21813303E-01
    1    8    0.18448180E-01  0.45394798E-01
    2    8    0.25787711E+00  0.37681984E-01
    3    8    0.62338627E-01 -0.41918240E-01
    4    8    0.13596331E+00 -0.15902454E-01
    5    8   -0.19267733E-03  0.35259211E-01
    6    8    0.11987237E+00 -0.57808465E-01
    7    8   -0.58558299E-01 -0.56988752E-02
    8    8    0.65491072E-01  0.17848729E-02

   -1   -1    0
    1    1   -0.14033631E-01 -0.23294127E-03
    2    1   -0.83635401E-01 -0.40257365E-02
    3    1    0.13122720E-01  0.86912180E-03
    4    1   -0.25358047E-01  0.21683464E-03
    5    1   -0.14611428E-01 -0.84834757E-03
    6    1    0.85474744E-02  0.76514791E-03
    7    1    0.18437227E-01 -0.78084737E-03
    8    1    0.64052418E-01  0.52022884E-02
    1    2   -0.17174645E-01  0.11748944E-02
    2    2    0.12184376E-01 -0.82521775E-04
    3    2   -0.12734630E-01 -0.38541050E-02
    4    2    0.91664130E-02  0.48987355E-03
    5    2   -0.96361121E-02 -0.47511056E-04
    6    2   -0.32341310E-01 -0.10562081E-02
    7    2    0.13931426E-01 -0.53464419E-03
    8    2   -0.17504749E-01  0.64414859E-02
    1    3    0.65100062E-02 -0.57643227E-03
    2    3    0.22576759E-01  0.15680496E-02
    3    3   -0.48493959E-02  0.11674593E-02
    4    3    0.16440805E-01 -0.10307394E-02
    5    3    0.13435829E-01 -0.12991841E-02
    6    3   -0.93654669E-02 -0.14166499E-02
    7    3    0.23131000E-01 -0.38292660E-02
    8    3   -0.44493143E-02 -0.90839612E-02
    1    4   -0.36584920E-03  0.34199642E-03
    2    4    0.25768399E-01 -0.66595860E-03
    3    4    0.11919791E-01  0.26394811E-02
    4    4   -0.15105778E-01  0.51336728E-04
    5    4    0.14123254E-01 -0.11108763E-03
    6    4   -0.32446606E-02  0.26565976E-02
    7    4    0.12755731E-01 -0.35765997E-02
    8    4   -0.18031859E-01 -0.18842296E-03
    1    5   -0.61282422E-02  0.26072087E-02
    2    5   -0.15667001E+01 -0.15381991E-01
    3    5   -0.48437445E-03 -0.79568721E-03
    4    5   -0.88803450E-01 -0.57760189E-02
    5    5   -0.43170572E-02  0.28815961E-03
    6    5    0.76279017E-01 -0.85953480E-03
    7    5   -0.56768068E-01  0.70189751E-02
    8    5    0.19547305E-01  0.87231150E-02
    1    6    0.15645172E-01 -0.24813126E-02
    2    6    0.16210813E+00  0.68951705E-03
    3    6    0.23356142E-01  0.51064623E-02
    4    6    0.51691017E-01  0.38799964E-02
    5    6    0.48411954E-01 -0.12727099E-02
    6    6    0.12615078E-01  0.55595442E-04
    7    6   -0.10746589E-01  0.11051976E-02
    8    6    0.27098411E-01 -0.92415796E-02
    1    7   -0.69839648E-02 -0.24266607E-02
    2    7    0.32051635E-02 -0.18771821E-02
    3    7   -0.97138995E-02 -0.68765377E-03
    4    7    0.80649157E-02  0.24193985E-02
    5    7   -0.26644368E-02 -0.16839981E-02
    6    7   -0.64982496E-02 -0.63104395E-03
    7    7   -0.10549687E-01  0.51438586E-03
    8    7    0.98670950E-03 -0.45367353E-01
    1    8    0.32454493E-01 -0.10609569E-01
    2    8   -0.42917816E+00 -0.21295642E-01
    3    8    0.21960319E+00  0.61827018E-01
    4    8   -0.19671507E-01  0.17807223E-01
    5    8    0.47034940E-02 -0.19616297E-01
    6    8    0.47289878E-02  0.15312035E-01
    7    8    0.11881231E+00  0.30586067E-01
    8    8   -0.60211178E-02 -0.17614738E-02

   -1   -1    1
    1    1    0.12258917E-01 -0.30139677E-02
    2    1    0.27651077E+00  0.36956914E-02
    3    1    0.10787255E+00  0.12306094E-01
    4    1    0.74334999E-02  0.91635118E-03
    5    1    0.13064758E-01 -0.15260292E-02
    6    1   -0.92116984E-02  0.19059546E-02
    7    1   -0.12448633E+00  0.89607372E-02
    8    1    0.43205192E-02 -0.34207272E-01
    1    2    0.30998351E-02 -0.10956824E-03
    2    2    0.11480844E-01  0.14732110E-02
    3    2   -0.19150149E-01  0.12752901E-02
    4    2    0.12609880E-01  0.26789631E-04
    5    2    0.10778854E-01 -0.82605597E-03
    6    2    0.12000807E-01 -0.52941576E-03
    7    2   -0.84512260E-02  0.41086834E-02
    8    2   -0.28595401E-01 -0.21090489E-01
    1    3    0.71164519E-02  0.57677777E-03
    2    3    0.25149871E-01 -0.17959458E-02
    3    3    0.14432989E-01 -0.18717297E-02
    4    3    0.78038809E-02 -0.10391029E-02
    5    3    0.68951410E-02  0.36121932E-04
    6    3   -0.17229929E-01  0.23371639E-02
    7    3    0.17161358E-01 -0.29519151E-02
    8    3    0.99978414E-02  0.30597243E-01
    1    4   -0.14934808E-01  0.90791382E-03
    2    4    0.22297167E-01 -0.29776246E-02
    3    4   -0.82276838E-02 -0.23223305E-02
    4    4    0.11058474E-01 -0.40649332E-03
    5    4   -0.81080290E-02  0.24417642E-03
    6    4    0.17639142E-01 -0.10048226E-02
    7    4   -0.24281934E-01  0.32680063E-02
    8    4    0.18462473E-01  0.14087175E-02
    1    5    0.38593035E-02 -0.29399935E-03
    2    5    0.25792257E-01  0.11807163E-02
    3    5    0.75783458E+00  0.62369912E-01
    4    5   -0.78053745E-01 -0.31686671E-02
    5    5    0.11243643E-01 -0.10943403E-02
    6    5    0.86796227E-01  0.26975202E-03
    7    5   -0.27701629E+00  0.24208654E-01
    8    5    0.11468797E+00 -0.29625147E-01
    1    6    0.18341982E-01  0.18209577E-02
    2    6    0.16344916E-01  0.49235396E-03
    3    6    0.15314060E-02 -0.45876295E-02
    4    6    0.16115171E-01 -0.67370940E-03
    5    6   -0.61591274E-02  0.14888447E-02
    6    6    0.10519609E-01  0.79386274E-03
    7    6    0.56341124E-01 -0.85445287E-02
    8    6    0.43856400E-02  0.35694910E-01
    1    7   -0.11038809E-01 -0.18660254E-02
    2    7   -0.12745360E-01  0.90360840E-03
    3    7   -0.84056301E-02  0.38103915E-03
    4    7    0.18567730E-01  0.18936587E-02
    5    7   -0.42415175E-02  0.11472531E-02
    6    7    0.17630548E-01  0.22724106E-03
    7    7    0.14371480E-01  0.14363495E-02
    8    7   -0.54128923E-01  0.14131013E-01
    1    8    0.29409439E-01  0.62806370E-02
    2    8    0.37394957E-01  0.11076949E-01
    3    8    0.25623148E+00  0.41515899E-01
    4    8   -0.10481653E+00 -0.21180285E-01
    5    8   -0.53680418E-02  0.57952989E-02
    6    8   -0.15906119E+00 -0.29612623E-01
    7    8    0.20830863E-01 -0.36041096E-01
    8    8    0.73646637E-02  0.26831074E-02

   -1   -1    2
    1    1    0.98826522E-02 -0.46378877E-03
    2    1    0.21082004E-01  0.21967472E-03
    3    1   -0.83155268E-01 -0.86659444E-02
    4    1    0.94296174E-01  0.45712451E-02
    5    1    0.93126302E-02  0.18349494E-02
    6    1    0.12608473E-01 -0.39110242E-03
    7    1    0.54155537E-02 -0.16031571E-02
    8    1   -0.44182324E-01  0.28764437E-01
    1    2    0.76209029E-02 -0.58975126E-03
    2    2   -0.15026650E-01  0.38751284E-03
    3    2   -0.58381181E-02 -0.34088919E-03
    4    2    0.10041472E-01  0.19395121E-03
    5    2    0.10439651E-03  0.69771649E-03
    6    2    0.32796273E-01 -0.33835614E-03
    7    2   -0.61669514E-02 -0.97530904E-03
    8    2   -0.20802023E-02  0.26449760E-01
    1    3    0.58052197E-01 -0.45392845E-02
    2    3   -0.10704568E-01  0.39760501E-03
    3    3   -0.42406110E-02 -0.68327485E-03
    4    3    0.90659479E-02  0.43208298E-03
    5    3    0.14008654E-01 -0.23982362E-02
    6    3    0.15453476E-01 -0.16371652E-02
    7    3    0.13963223E-01 -0.35478592E-02
    8    3    0.27131077E-01 -0.30662818E-01
    1    4    0.14893945E-01  0.13946956E-03
    2    4    0.83956112E-02  0.99603309E-03
    3    4    0.17075527E-03  0.13758841E-03
    4    4    0.14838453E-01 -0.19954596E-03
    5    4    0.72916690E-02 -0.77230609E-03
    6    4    0.53137832E-01 -0.34682875E-02
    7    4   -0.21648393E-01  0.56796597E-02
    8    4    0.86015248E-02 -0.11814550E-01
    1    5   -0.22799809E-01 -0.12479326E-02
    2    5   -0.15930493E-01 -0.10374798E-02
    3    5    0.18920467E-03  0.91502432E-03
    4    5    0.55965586E-01  0.37143673E-02
    5    5   -0.67943336E-02  0.50243950E-04
    6    5    0.49960288E-01  0.16747581E-02
    7    5   -0.27723007E+00  0.21580401E-01
    8    5    0.76578249E-01 -0.46487235E-02
    1    6    0.17438594E-01 -0.82089538E-03
    2    6    0.40360759E-01 -0.15668211E-02
    3    6    0.70588756E-02  0.85932650E-03
    4    6   -0.29867205E-02  0.12966459E-02
    5    6    0.86651356E-02 -0.20938716E-02
    6    6   -0.15125275E-01  0.16349007E-03
    7    6    0.17285444E-01  0.27480622E-03
    8    6    0.67541006E-02 -0.40337833E-01
    1    7    0.21672021E-01  0.24713116E-02
    2    7    0.25846996E-01  0.38658197E-02
    3    7   -0.19211147E-01 -0.77274801E-03
    4    7    0.11326374E-01  0.62831916E-03
    5    7   -0.14588030E-01  0.42493951E-05
    6    7   -0.15793065E-01 -0.21803176E-02
    7    7   -0.52596506E-02 -0.28215896E-04
    8    7   -0.43360356E-02  0.20756628E-01
    1    8   -0.12047828E-01 -0.36573649E-01
    2    8   -0.19806445E-01 -0.28493056E-01
    3    8    0.93710688E-01  0.49033700E-01
    4    8   -0.14253727E-01  0.23260699E-01
    5    8   -0.41577295E-01 -0.38365632E-02
    6    8    0.34161386E-01  0.57684906E-01
    7    8    0.90681815E-01 -0.35054042E-01
    8    8   -0.83517885E-02  0.77357992E-03

   -1   -1    3
    1    1    0.66163619E-01  0.30872281E-02
    2    1    0.15979336E-01  0.24162490E-02
    3    1   -0.86969763E-02 -0.16267151E-02
    4    1   -0.25580276E-01 -0.26162720E-02
    5    1    0.10872578E-01  0.31333254E-03
    6    1    0.15544585E-01 -0.11961565E-02
    7    1    0.82851707E-01 -0.47848439E-02
    8    1   -0.49026676E-01 -0.28422391E-06
    1    2    0.55371032E-01 -0.84293290E-03
    2    2    0.65453777E-01 -0.18564943E-02
    3    2    0.17792453E-01  0.12939178E-02
    4    2    0.95278181E-02  0.13205741E-02
    5    2    0.14655720E-01 -0.51823168E-03
    6    2    0.26677082E-01  0.14193281E-02
    7    2   -0.17232033E-01  0.44672147E-03
    8    2    0.19014444E-01 -0.16507608E-01
    1    3   -0.10962244E-01 -0.62206702E-03
    2    3    0.55165525E-01 -0.53366312E-02
    3    3    0.65550836E-01 -0.17918670E-03
    4    3   -0.15642641E-01  0.15315327E-02
    5    3    0.12281453E+00 -0.97265468E-02
    6    3   -0.78744358E-02  0.23399584E-02
    7    3    0.23751639E-01 -0.49497909E-02
    8    3   -0.70238731E-02 -0.60615232E-02
    1    4    0.20058225E-01 -0.25643861E-02
    2    4    0.10792673E-01 -0.10772953E-02
    3    4   -0.24808914E-01  0.28453365E-03
    4    4    0.64431972E-01  0.19552275E-03
    5    4   -0.50423941E-01  0.25346712E-02
    6    4    0.88058125E-02 -0.98420046E-03
    7    4   -0.54013365E-01  0.82772862E-02
    8    4   -0.54602513E-02  0.84239387E-02
    1    5    0.70520047E-02  0.15706162E-02
    2    5    0.81042584E-04  0.26649802E-03
    3    5    0.10040134E-01  0.74658072E-03
    4    5   -0.49867657E-01 -0.28000231E-02
    5    5    0.64754724E-01  0.69299993E-03
    6    5   -0.54776288E-01  0.13861980E-03
    7    5   -0.58162149E-01  0.39357568E-02
    8    5    0.97297350E-02  0.12316089E-02
    1    6    0.23201182E-01  0.93187429E-04
    2    6   -0.19832473E-01  0.26381969E-02
    3    6   -0.12815287E-01 -0.20701425E-02
    4    6    0.10738672E-01 -0.10604205E-02
    5    6   -0.15197738E-01  0.11771610E-02
    6    6    0.64502412E-01 -0.13491150E-02
    7    6    0.25423931E-01 -0.17056680E-02
    8    6   -0.39886083E-01  0.19160195E-01
    1    7   -0.11662470E-01  0.57138935E-03
    2    7   -0.15448188E-02 -0.33673749E-02
    3    7   -0.16184410E-01 -0.41353411E-02
    4    7   -0.15901527E-01 -0.16919323E-02
    5    7   -0.13710854E-01 -0.67334265E-03
    6    7   -0.15778115E-01  0.66962704E-03
    7    7    0.66711979E-01 -0.23758292E-02
    8    7    0.25442059E-01  0.21813303E-01
    1    8    0.18448180E-01  0.45394798E-01
    2    8    0.25787711E+00  0.37681984E-01
    3    8    0.62338627E-01 -0.41918240E-01
    4    8    0.13596331E+00 -0.15902454E-01
    5    8   -0.19267733E-03  0.35259211E-01
    6    8    0.11987237E+00 -0.57808465E-01
    7    8   -0.58558299E-01 -0.56988752E-02
    8    8    0.65491072E-01  0.17848729E-02

   -1    0   -1
    1    1   -0.18772422E-01  0.10755642E-02
    2    1   -0.82720916E-02  0.18799266E-02
    3    1    0.36567667E-02  0.16183083E-02
    4    1   -0.32794092E-01 -0.28342614E-02
    5    1    0.77626194E-02  0.11220375E-02
    6    1   -0.13633678E-01 -0.78955553E-03
    7    1    0.17081222E-01 -0.23331796E-02
    8    1    0.43164803E-02 -0.18943859E-02
    1    2   -0.11843526E-01  0.10146499E-03
    2    2   -0.33304797E-02  0.30846186E-03
    3    2    0.14352245E-01  0.30915022E-02
    4    2   -0.16275411E-01 -0.12275087E-02
    5    2   -0.17637387E-01  0.63731352E-05
    6    2    0.24340348E-01  0.74268426E-03
    7    2   -0.12031823E+00  0.11642706E-01
    8    2    0.12643783E-01 -0.58681797E-02
    1    3    0.24551742E-01 -0.25586832E-02
    2    3    0.27864456E+00 -0.22566800E-01
    3    3   -0.65270581E-02  0.29747681E-03
    4    3    0.12166515E+00 -0.24966991E-02
    5    3   -0.15076081E-01  0.11431754E-02
    6    3    0.88488178E-01 -0.50792456E-02
    7    3    0.27537681E-01 -0.56910681E-02
    8    3   -0.27662513E-01  0.14714625E-01
    1    4   -0.39816810E-01  0.23112311E-02
    2    4   -0.53079932E-02 -0.82815114E-03
    3    4    0.94929815E-02 -0.28014772E-03
    4    4   -0.18175210E-01  0.20995427E-03
    5    4   -0.10686308E-01  0.10119519E-03
    6    4   -0.24042765E-01  0.44420889E-03
    7    4    0.96370771E-02  0.24727394E-03
    8    4    0.65946605E-03 -0.30985918E-02
    1    5    0.25574804E-01 -0.28435550E-02
    2    5   -0.83145915E-02 -0.13230776E-02
    3    5    0.98070960E-02  0.18319910E-02
    4    5   -0.16638890E-01  0.20580640E-03
    5    5    0.12294680E-01 -0.74033343E-03
    6    5   -0.20433065E-01  0.68095873E-03
    7    5   -0.61492051E-02 -0.94438463E-03
    8    5   -0.19198089E-01 -0.10513142E-01
    1    6   -0.86280370E-02  0.13999886E-02
    2    6   -0.72052454E-02 -0.12679845E-02
    3    6   -0.12366156E-01 -0.31775169E-02
    4    6   -0.16191223E-01 -0.13950224E-02
    5    6    0.14397511E-01  0.10523064E-02
    6    6   -0.57746566E-02 -0.13123283E-03
    7    6    0.21524546E-01 -0.23298832E-02
    8    6    0.14580298E-01  0.10847436E-01
    1    7    0.22970322E-02  0.38186115E-02
    2    7   -0.75812167E+00 -0.75708694E-01
    3    7   -0.17550053E-02 -0.17948116E-03
    4    7   -0.10821148E+00 -0.16419496E-01
    5    7    0.10373215E-01  0.22755723E-02
    6    7   -0.88257801E-01 -0.52156581E-02
    7    7   -0.23265476E-02 -0.34774114E-03
    8    7    0.27890483E-02  0.49712013E-01
    1    8   -0.46382263E+00  0.25112985E-01
    2    8   -0.18295516E+01 -0.50406030E-01
    3    8   -0.32681573E-01 -0.39019557E-01
    4    8    0.74657380E+00  0.46857594E-01
    5    8   -0.21140385E+00  0.24663687E-01
    6    8    0.15643654E+01  0.20556739E-01
    7    8   -0.49854822E-01 -0.34227655E-01
    8    8    0.12534492E-01 -0.67215116E-03

   -1    0    0
    1    1   -0.84498746E-01  0.49912878E-03
    2    1   -0.78158837E-01 -0.14069934E-02
    3    1   -0.67484734E-02 -0.19870535E-02
    4    1    0.35614105E-02  0.37394184E-03
    5    1   -0.91852792E-02  0.45974960E-03
    6    1    0.27546139E-03 -0.90877566E-03
    7    1   -0.14307975E-01  0.17336440E-02
    8    1    0.11146454E-01  0.22467034E-01
    1    2    0.43616224E-02  0.55733975E-03
    2    2    0.10563395E+00 -0.36742262E-02
    3    2   -0.82490347E-02 -0.14554379E-02
    4    2   -0.11902106E-01  0.96373732E-03
    5    2    0.97522263E-02  0.71494981E-03
    6    2   -0.90842743E-01  0.20677626E-02
    7    2    0.15534177E-01 -0.44790881E-02
    8    2    0.65923512E-01  0.20492137E-01
    1    3    0.22377069E-01 -0.50599992E-02
    2    3   -0.43322799E+00  0.28546200E-01
    3    3   -0.86044132E-01  0.26945365E-02
    4    3   -0.51480888E-02  0.19630062E-02
    5    3   -0.21319130E-01  0.44513538E-03
    6    3    0.11452872E-01 -0.15397609E-02
    7    3    0.20050790E+00 -0.36073141E-01
    8    3   -0.77092621E-02 -0.46922996E-01
    1    4   -0.13941414E-01  0.17541616E-02
    2    4   -0.15744078E+01  0.65839015E-01
    3    4   -0.78762913E-02  0.33628497E-02
    4    4   -0.83270273E-01  0.83262996E-03
    5    4    0.20670080E-01 -0.82683511E-03
    6    4   -0.27969881E+00  0.15045972E-01
    7    4   -0.21178682E-01  0.27767026E-02
    8    4   -0.24954995E-01 -0.61538921E-02
    1    5   -0.15685565E+01  0.12954784E-01
    2    5    0.24795391E-01 -0.31570875E-03
    3    5   -0.65890675E-02 -0.15162433E-02
    4    5    0.27906964E+00  0.13297499E-01
    5    5    0.10861335E+00  0.12123963E-02
    6    5   -0.27815916E+00  0.25978946E-04
    7    5   -0.23287915E-01  0.20295339E-02
    8    5   -0.31553754E-01  0.17641015E-01
    1    6   -0.22808203E-01 -0.52879276E-02
    2    6    0.46689947E+00  0.41036781E-02
    3    6   -0.90350824E-02  0.86119476E-03
    4    6    0.89529082E-01  0.53964001E-02
    5    6   -0.58129679E-01 -0.21506219E-02
    6    6    0.11006089E+00 -0.28880802E-02
    7    6   -0.10852879E-01  0.32649383E-02
    8    6   -0.20881414E-01 -0.46202736E-01
    1    7    0.19814938E-02  0.19959056E-02
    2    7    0.13117868E-01  0.49184803E-03
    3    7    0.63490913E+00  0.10602927E+00
    4    7    0.84147265E-01  0.10956252E-01
    5    7    0.19794488E-01  0.20075010E-03
    6    7    0.10425076E+00  0.97700546E-02
    7    7   -0.88450181E-01 -0.54729404E-03
    8    7    0.70283655E-01 -0.18302692E-01
    1    8    0.25514701E+00 -0.84133775E-02
    2    8    0.23821018E+00 -0.29270662E-01
    3    8   -0.17917569E+01 -0.18906135E+00
    4    8   -0.15271467E+01 -0.92028154E-01
    5    8    0.36734920E-03 -0.63036019E-02
    6    8   -0.70971260E+00  0.34048323E-01
    7    8    0.14731191E+01 -0.35779467E-01
    8    8    0.11260290E+00  0.18709108E-02

   -1    0    1
    1    1    0.11620427E+00 -0.11412990E-02
    2    1    0.24195179E-01  0.17268953E-02
    3    1   -0.89415832E-01 -0.73274455E-02
    4    1   -0.16217202E+00 -0.86290134E-02
    5    1    0.37731865E-02 -0.14963076E-02
    6    1   -0.32633377E-02 -0.56701903E-04
    7    1    0.10386382E-01 -0.99745392E-03
    8    1    0.13929880E-01 -0.27465069E-01
    1    2   -0.16597505E-01  0.36939392E-04
    2    2   -0.85260475E-01  0.13229661E-02
    3    2   -0.90498199E-01 -0.66722456E-02
    4    2    0.10162512E-01  0.17023523E-03
    5    2    0.87904998E-02 -0.48076813E-03
    6    2   -0.34982699E-02 -0.91302872E-03
    7    2    0.84837507E-01 -0.63047433E-02
    8    2   -0.65664087E-01 -0.39554852E-01
    1    3    0.54810988E-01 -0.50327041E-02
    2    3    0.21192079E-01 -0.69670203E-03
    3    3   -0.87725610E-01 -0.13926540E-03
    4    3   -0.89578762E-01  0.19066449E-02
    5    3   -0.19973381E-01  0.34608084E-02
    6    3   -0.12341211E+00  0.88920965E-02
    7    3    0.16358162E-01 -0.25325081E-02
    8    3   -0.31730265E-01  0.44285582E-01
    1    4   -0.16035302E+00  0.88751562E-02
    2    4   -0.43095029E-02 -0.56043235E-03
    3    4    0.75472564E+00  0.20310192E-01
    4    4    0.10994340E+00 -0.12099169E-02
    5    4    0.22838660E-01 -0.14517426E-02
    6    4    0.84378775E-01 -0.35912582E-02
    7    4    0.42391008E+00 -0.62876735E-01
    8    4   -0.75899595E-01  0.94171570E-02
    1    5    0.30617155E-02  0.46089915E-03
    2    5   -0.19528667E-01  0.14234051E-02
    3    5   -0.77191900E-02 -0.18977795E-02
    4    5    0.22397120E-01 -0.39749699E-03
    5    5    0.10856195E+00  0.44586056E-03
    6    5    0.18049490E-01 -0.20846453E-02
    7    5    0.42950640E+00 -0.35739221E-01
    8    5   -0.18645316E+00  0.48660499E-02
    1    6   -0.28282697E-01  0.15879632E-02
    2    6    0.12443021E-01 -0.51885623E-04
    3    6   -0.75033105E+00 -0.58899418E-01
    4    6   -0.28277542E+00 -0.13701487E-01
    5    6   -0.21356827E-01  0.23918908E-02
    6    6   -0.85712928E-01  0.12529393E-02
    7    6    0.28312302E+00 -0.29470467E-01
    8    6   -0.53480779E-01  0.77197073E-01
    1    7    0.22774687E-01  0.74424040E-03
    2    7   -0.14283042E-01 -0.33159788E-02
    3    7   -0.39221302E-02 -0.32401107E-02
    4    7    0.11020584E-01  0.23898968E-02
    5    7    0.10186601E-01 -0.45586484E-03
    6    7    0.18133046E-01  0.29788888E-02
    7    7   -0.85034491E-01  0.19899013E-03
    8    7    0.96194164E-02 -0.27441748E-01
    1    8    0.17447684E-01  0.38556475E-01
    2    8    0.13890351E-01  0.39084940E-01
    3    8   -0.13038247E+00 -0.77312394E-01
    4    8   -0.10941452E+00 -0.48039248E-01
    5    8   -0.18966712E+00 -0.33116236E-02
    6    8   -0.15632814E-01 -0.61136688E-01
    7    8    0.15930076E+01 -0.67926589E-01
    8    8    0.10367163E+00 -0.73027627E-03

   -1    0    2
    1    1   -0.71199566E-02 -0.20577124E-02
    2    1   -0.94867269E-02 -0.12762639E-02
    3    1   -0.18210370E-01 -0.10158449E-02
    4    1   -0.15336942E-01 -0.53341832E-04
    5    1    0.16121384E-01 -0.48735044E-03
    6    1   -0.14204752E-01  0.62242055E-03
    7    1   -0.20710031E-01 -0.10228850E-02
    8    1    0.35439754E-01  0.21625916E-02
    1    2   -0.51276072E-01  0.88603014E-03
    2    2   -0.17896655E-01  0.10156105E-02
    3    2    0.10279092E+00  0.66069290E-02
    4    2   -0.11892308E-01 -0.94057264E-03
    5    2    0.14163762E-01  0.27607205E-03
    6    2    0.23149872E-01 -0.10453021E-02
    7    2    0.12897278E-01  0.31560605E-04
    8    2   -0.38261125E-01  0.23876457E-01
    1    3   -0.11174276E-01  0.31760364E-02
    2    3   -0.87625448E-02  0.23318575E-02
    3    3   -0.53099884E-02  0.10999988E-02
    4    3   -0.15586438E-01 -0.19895324E-03
    5    3   -0.16267114E-01  0.17393366E-02
    6    3    0.14948837E-01 -0.31129375E-02
    7    3    0.20427947E+00 -0.33804568E-01
    8    3    0.26735989E-01  0.43217182E-02
    1    4    0.18792992E-01  0.89005047E-03
    2    4    0.26676039E-02  0.29496878E-03
    3    4    0.10280259E-01 -0.10066780E-02
    4    4   -0.48758192E-02 -0.28199330E-03
    5    4    0.56761880E-01 -0.28924000E-02
    6    4   -0.12744932E-01  0.40132319E-03
    7    4   -0.27990954E+00  0.38010773E-01
    8    4    0.36453587E-01 -0.11436075E-01
    1    5   -0.14871429E-01 -0.44462080E-03
    2    5    0.15510660E-01 -0.73123853E-03
    3    5    0.73202222E-02  0.83318073E-03
    4    5    0.62683391E-02  0.89192021E-03
    5    5    0.13850051E-01 -0.82496588E-03
    6    5   -0.93798469E-02  0.92068343E-03
    7    5   -0.18930110E-01  0.23397660E-02
    8    5   -0.66376036E-02  0.44251745E-02
    1    6   -0.94950749E-02  0.29080612E-03
    2    6    0.11901592E-04 -0.42974509E-03
    3    6    0.12746812E-01  0.25891548E-02
    4    6   -0.20130146E-01 -0.17671885E-03
    5    6   -0.22121593E-01 -0.74931069E-03
    6    6   -0.15708533E-01  0.19168210E-03
    7    6   -0.43516905E+00  0.42400810E-01
    8    6    0.12606277E+00 -0.29558334E-01
    1    7   -0.10219923E-01 -0.23058830E-02
    2    7   -0.78544124E-02  0.32529068E-02
    3    7    0.97843091E-02  0.19020025E-02
    4    7   -0.13622389E-01 -0.27287875E-02
    5    7    0.10679066E-01  0.23934885E-03
    6    7   -0.12096926E-01 -0.38244662E-02
    7    7   -0.74593728E-02  0.20137010E-02
    8    7   -0.14985824E-01 -0.16886204E-01
    1    8    0.33825208E-01 -0.47611633E-01
    2    8   -0.52385172E-01 -0.45157025E-01
    3    8   -0.77624278E-01  0.38414635E-01
    4    8   -0.28139205E-01  0.21154312E-01
    5    8   -0.41683884E-01 -0.30655523E-01
    6    8    0.51724017E-01  0.64229581E-01
    7    8    0.47730663E-01  0.22722499E-01
    8    8    0.14443067E-01 -0.11563194E-02

   -1    1   -2
    1    1   -0.31194340E-02 -0.27613572E-03
    2    1    0.23220118E-02 -0.76029772E-03
    3    1    0.98131571E-03 -0.17102515E-02
    4    1    0.19231248E-03  0.21079482E-03
    5    1    0.10546767E-01 -0.46337294E-03
    6    1   -0.30844315E-03  0.22179008E-03
    7    1    0.21839634E-01 -0.29809163E-04
    8    1    0.86431898E-02  0.91171688E-03
    1    2    0.14631571E-01 -0.81928943E-03
    2    2   -0.61887979E-02 -0.85252498E-03
    3    2   -0.68812615E-02 -0.24792838E-02
    4    2    0.15224018E-01  0.99628080E-03
    5    2   -0.94815875E-02  0.41816100E-03
    6    2    0.35346304E-01  0.35721735E-03
    7    2    0.48006027E-02  0.15168964E-02
    8    2   -0.17651113E-01  0.22870986E-02
    1    3    0.19842328E-01 -0.97446319E-05
    2    3   -0.19120850E-01  0.48041915E-02
    3    3   -0.17704769E-01  0.17311878E-03
    4    3    0.16655530E-01 -0.15637414E-02
    5    3    0.88075407E-02  0.11312841E-04
    6    3    0.20393445E-01 -0.49886264E-02
[...]
    2    2    0.30282817E-03  0.77995169E-05  0.36882608E-03  0.11240635E-04  0.30282817E-03  0.77995169E-05
    3    2   -0.81662668E-04 -0.22901652E-04  0.11790635E-02 -0.62583134E-04  0.19144513E-02  0.22511801E-03
    4    2    0.34506260E-03  0.80427925E-04 -0.26099875E-03  0.46120042E-04  0.11933822E-02 -0.16509704E-06
    5    2   -0.30135961E-02 -0.89186665E-05  0.63355738E-02 -0.11013794E-03 -0.63877065E-02  0.18065631E-03
    6    2   -0.23992167E-02  0.11392076E-04  0.11617120E-02  0.45192886E-04  0.23248777E-02 -0.30091358E-04
    7    2   -0.33236972E-02  0.34327537E-03  0.12967032E-02 -0.12909240E-03  0.12583010E-02 -0.19710172E-03
    8    2    0.81144067E-03 -0.22011156E-03 -0.87913298E-04  0.13015275E-02  0.44672704E-02  0.81399964E-03
    1    3    0.58959045E-02 -0.60965984E-03 -0.17260224E-03  0.62771225E-04 -0.10899094E-01  0.10367378E-02
    2    3    0.50525977E-02 -0.52825021E-03  0.52210949E-02 -0.41684669E-03 -0.50850595E-02  0.47516035E-03
    3    3   -0.72792500E-05 -0.81368576E-05  0.10950649E-02  0.17117200E-04 -0.72792500E-05 -0.81368576E-05
    4    3   -0.11654998E-02  0.13067157E-03  0.32011842E-02 -0.81705490E-04 -0.11243878E-02 -0.53526521E-04
    5    3    0.69398259E-02 -0.55585537E-03  0.67814681E-02 -0.49026199E-03 -0.37320428E-02  0.30292408E-03
    6    3   -0.31855917E-02  0.29343000E-03  0.18557925E-02 -0.14505257E-03  0.32716365E-02 -0.33660545E-03
    7    3   -0.19393909E-02  0.29213764E-03 -0.26445336E-02  0.39471340E-03  0.41994379E-02 -0.71627048E-03
    8    3   -0.45240747E-03 -0.28283551E-03  0.26592863E-03  0.20382714E-02  0.12087162E-03  0.11775978E-02
    1    4   -0.25081848E-02  0.12891575E-03  0.59044868E-03 -0.95806445E-05  0.23366694E-02 -0.15447859E-03
    2    4    0.46881252E-04  0.77795788E-04  0.24783022E-02 -0.12572403E-04  0.25173898E-02 -0.12690047E-03
    3    4    0.10836539E-03  0.71064978E-04  0.37449674E-02  0.16517889E-03 -0.37248746E-03 -0.28243883E-04
    4    4    0.21009192E-04  0.10376578E-04 -0.10498853E-02  0.86337028E-05  0.21009192E-04  0.10376578E-04
    5    4    0.10308745E-02 -0.85207248E-04  0.50251288E-02 -0.22921344E-03 -0.23692353E-02  0.11044186E-03
    6    4   -0.11746329E-02  0.27635168E-04 -0.23530910E-02  0.46728793E-04  0.26938494E-02 -0.95515799E-04
    7    4   -0.94710242E-03  0.12763794E-03  0.39236337E-02 -0.52817596E-03 -0.24304329E-02  0.35925335E-03
    8    4   -0.16278545E-03 -0.13253603E-02 -0.15764212E-02  0.14769573E-03 -0.15095952E-02  0.13467373E-02
    1    5    0.15461147E-02 -0.20654058E-04  0.10739855E-03  0.10780926E-04  0.86063014E-04  0.54190802E-04
    2    5   -0.21087125E-03  0.64129103E-05  0.11969462E-02  0.18535144E-04 -0.47548822E-03  0.94924418E-05
    3    5    0.23004539E-04  0.27279056E-04  0.55232763E-03  0.66248536E-04 -0.31144616E-02 -0.26039667E-03
    4    5   -0.18089612E-02 -0.13788852E-03 -0.14570361E-02 -0.62453772E-04  0.29710055E-02  0.15939763E-03
    5    5    0.32576010E-03  0.28210948E-04 -0.39942208E-03  0.21295776E-05  0.32576010E-03  0.28210948E-04
    6    5   -0.51136798E-03 -0.29031761E-04 -0.43585088E-02 -0.15083930E-04  0.70585947E-03  0.17226616E-04
    7    5   -0.56202034E-03  0.11265533E-03 -0.52113240E-03  0.57271641E-04 -0.47957203E-03  0.38047296E-04
    8    5    0.15456448E-02 -0.16188953E-03  0.24578559E-02 -0.23020025E-03  0.58832817E-04 -0.11800531E-02
    1    6   -0.93817876E-04 -0.51109742E-04 -0.76542533E-03 -0.18664250E-04 -0.44241200E-03 -0.45832476E-04
    2    6   -0.34140043E-02 -0.31860971E-04  0.18981887E-03  0.71377270E-04 -0.20941725E-03 -0.12796585E-04
    3    6   -0.36453697E-02 -0.30462726E-03 -0.10104452E-03  0.82910527E-04  0.22237205E-03 -0.76258810E-04
    4    6   -0.25382240E-02 -0.12799649E-03 -0.87647942E-03 -0.75391920E-04  0.39772192E-02  0.23728556E-03
    5    6   -0.51758464E-02 -0.10230443E-04 -0.12222971E-02 -0.85013825E-05  0.25045356E-02 -0.45765548E-05
    6    6   -0.32978564E-03  0.41854165E-04 -0.41945627E-03  0.31953547E-04 -0.32978564E-03  0.41854165E-04
    7    6   -0.90049592E-04  0.33351746E-04  0.21726029E-02 -0.17109148E-03  0.11523794E-03  0.80479913E-05
    8    6   -0.50749668E-03 -0.57860920E-03  0.41709145E-04 -0.73026920E-03 -0.42800698E-02 -0.63531529E-03
    1    7   -0.22530379E-01 -0.16649993E-02 -0.56885956E-02 -0.49067524E-03  0.22682128E-01  0.18757025E-02
    2    7    0.78744586E-02  0.87064704E-03  0.48559452E-02  0.46246802E-03 -0.43541337E-02 -0.50007914E-03
    3    7    0.42149173E-02  0.74459333E-03  0.26065609E-02  0.39050373E-03 -0.18386628E-02 -0.22375943E-03
    4    7   -0.48773519E-02 -0.69880274E-03 -0.56229074E-02 -0.73279995E-03  0.27909601E-02  0.38567274E-03
    5    7   -0.71390456E-02 -0.60850593E-03 -0.27193062E-02 -0.25534548E-03  0.72357596E-02  0.60304993E-03
    6    7   -0.86012309E-02 -0.81424299E-03 -0.51520461E-02 -0.49950132E-03  0.55668401E-02  0.51707407E-03
    7    7   -0.19351322E-04  0.62969666E-05 -0.11197481E-02 -0.62851460E-05 -0.19351322E-04  0.62969666E-05
    8    7   -0.35221812E-03  0.81348942E-03  0.29956715E-02 -0.62900469E-03  0.19740184E-02 -0.57716640E-04
    1    8    0.20090508E-01  0.17437626E-02  0.15171489E-01 -0.45525921E-03 -0.16317404E-01 -0.37236470E-02
    2    8   -0.26956066E-02  0.67138351E-04 -0.11792826E-01  0.82854937E-03 -0.43876787E-02  0.84972413E-04
    3    8    0.33023559E-03 -0.11572417E-02 -0.12017069E-02  0.16164304E-02  0.18990072E-02 -0.11414416E-02
    4    8    0.69612359E-03 -0.14920172E-02  0.66053706E-02  0.34193832E-03 -0.47921645E-03 -0.43458187E-03
    5    8    0.90393919E-02  0.10642892E-02  0.62817526E-02 -0.20107995E-02 -0.43925326E-02 -0.27903385E-03
    6    8   -0.67247302E-02  0.66803624E-03  0.23371270E-02  0.29726253E-03  0.60282105E-02 -0.80171121E-03
    7    8    0.21314946E-02  0.56109809E-03  0.15598779E-02 -0.53218609E-03 -0.38118500E-02 -0.27767261E-03
    8    8   -0.37492681E-03 -0.27955011E-01  0.51388474E-03  0.43532103E-04 -0.37492681E-03 -0.27955011E-01

    2    2   -2
    1    1    0.72728282E-15 -0.56038269E-20 -0.74116061E-15 -0.28173672E-20 -0.23722344E-15  0.66449135E-18
    2    1   -0.97946523E-03  0.18365701E-04 -0.19604713E-02 -0.73213081E-04  0.28887012E-02  0.50867474E-04
    3    1   -0.18020555E-02 -0.38113173E-04 -0.13957899E-04 -0.10227524E-03 -0.13837192E-02 -0.15444403E-03
    4    1   -0.12593421E-02 -0.14438002E-04  0.37102863E-02  0.22680593E-03  0.38458151E-02  0.22460132E-03
    5    1    0.13648312E-02  0.23644154E-04 -0.71581771E-03  0.10782650E-04 -0.81179602E-03 -0.11143593E-04
    6    1   -0.29163586E-03  0.57488782E-05  0.14697391E-03  0.49599022E-04  0.35986490E-02  0.32227157E-04
    7    1    0.19431163E-02 -0.25922475E-03  0.12671748E-02 -0.10407658E-03 -0.77518307E-03  0.93900670E-04
    8    1    0.13277928E-03 -0.15575935E-02  0.14658507E-02  0.18510772E-02  0.15876136E-02  0.26574800E-03
    1    2    0.97946523E-03  0.18365701E-04  0.19604713E-02 -0.73213081E-04 -0.28887012E-02  0.50867474E-04
    2    2   -0.82933335E-15 -0.24950316E-18  0.67749083E-15  0.28737706E-18 -0.29243643E-15 -0.14269970E-19
    3    2    0.28811813E-02  0.29370251E-03  0.20095411E-02  0.24673936E-03  0.10650027E-02  0.22662354E-04
    4    2   -0.22943379E-03 -0.78028530E-04  0.35585960E-03 -0.31071359E-04 -0.16207709E-02 -0.45338366E-04
    5    2   -0.12649165E-02  0.43274056E-05 -0.45754750E-03  0.96787530E-05 -0.70924330E-03 -0.38827851E-04
    6    2   -0.38979578E-02 -0.23415974E-04  0.37933732E-02 -0.14375335E-03 -0.12701923E-02 -0.12037386E-04
    7    2    0.34478309E-03 -0.55600446E-04  0.25600379E-03  0.47045131E-05 -0.77420685E-03  0.10740219E-03
    8    2   -0.66209012E-02  0.46431845E-03 -0.72034160E-02 -0.12671205E-02  0.18305768E-02 -0.10372233E-02
    1    3    0.18020555E-02 -0.38113173E-04  0.13957899E-04 -0.10227524E-03  0.13837192E-02 -0.15444403E-03
    2    3   -0.28811813E-02  0.29370251E-03 -0.20095411E-02  0.24673936E-03 -0.10650027E-02  0.22662354E-04
    3    3    0.11232335E-14  0.38884601E-18  0.19949320E-15 -0.19307957E-19  0.94282221E-15 -0.29339764E-18
    4    3   -0.24417933E-03 -0.84533723E-04 -0.34959385E-02  0.29788796E-04  0.15437982E-03  0.23767448E-04
    5    3   -0.10969243E-02  0.61136861E-04 -0.23807622E-05 -0.53961000E-04 -0.60318362E-04  0.25723809E-04
    6    3    0.16183680E-02 -0.14399043E-03  0.28245074E-03 -0.11509372E-03 -0.26552029E-03  0.76487694E-04
    7    3   -0.34221199E-02  0.59748138E-03 -0.16917309E-02  0.33317498E-03  0.31446710E-02 -0.55604973E-03
    8    3   -0.12742702E-02  0.79077569E-03  0.64572101E-03 -0.18173038E-02 -0.37556334E-02 -0.47487711E-04
    1    4    0.12593421E-02 -0.14438002E-04 -0.37102863E-02  0.22680593E-03 -0.38458151E-02  0.22460132E-03
    2    4    0.22943379E-03 -0.78028530E-04 -0.35585960E-03 -0.31071359E-04  0.16207709E-02 -0.45338366E-04
    3    4    0.24417933E-03 -0.84533723E-04  0.34959385E-02  0.29788796E-04 -0.15437982E-03  0.23767448E-04
    4    4   -0.69432307E-15  0.27770429E-19  0.69779252E-15 -0.11786031E-19 -0.66461593E-15 -0.66342681E-18
    5    4    0.57433213E-03 -0.30728301E-06 -0.24738581E-02  0.10172074E-03 -0.25621657E-02  0.12526857E-03
    6    4   -0.39895246E-04  0.56533892E-04  0.11309401E-03  0.46991978E-04  0.32985352E-04 -0.17529830E-04
    7    4    0.24977930E-02 -0.37163791E-03  0.39798456E-02 -0.64735689E-03  0.94581740E-03 -0.16145067E-03
    8    4   -0.12530304E-02  0.17921113E-02  0.17248691E-02  0.35852574E-03  0.16614494E-02 -0.17819466E-03
    1    5   -0.13648312E-02  0.23644154E-04  0.71581771E-03  0.10782650E-04  0.81179602E-03 -0.11143593E-04
    2    5    0.12649165E-02  0.43274056E-05  0.45754750E-03  0.96787530E-05  0.70924330E-03 -0.38827851E-04
    3    5    0.10969243E-02  0.61136861E-04  0.23807622E-05 -0.53961000E-04  0.60318362E-04  0.25723809E-04
    4    5   -0.57433213E-03 -0.30728301E-06  0.24738581E-02  0.10172074E-03  0.25621657E-02  0.12526857E-03
    5    5   -0.28991566E-14  0.25520121E-19 -0.14755992E-15  0.36674927E-18 -0.24602716E-14  0.25999028E-18
    6    5   -0.14929687E-02  0.22673690E-04 -0.35059515E-02 -0.15080297E-04  0.30364850E-02  0.29910755E-05
    7    5    0.17609273E-02 -0.18920054E-03 -0.19307046E-03  0.34988093E-04 -0.32677970E-02  0.32352403E-03
    8    5   -0.17609031E-02 -0.12403997E-02 -0.18081785E-02  0.43905475E-03 -0.11237579E-02 -0.25222281E-03
    1    6    0.29163586E-03  0.57488782E-05 -0.14697391E-03  0.49599022E-04 -0.35986490E-02  0.32227157E-04
    2    6    0.38979578E-02 -0.23415974E-04 -0.37933732E-02 -0.14375335E-03  0.12701923E-02 -0.12037386E-04
    3    6   -0.16183680E-02 -0.14399043E-03 -0.28245074E-03 -0.11509372E-03  0.26552029E-03  0.76487694E-04
    4    6    0.39895246E-04  0.56533892E-04 -0.11309401E-03  0.46991978E-04 -0.32985352E-04 -0.17529830E-04
    5    6    0.14929687E-02  0.22673690E-04  0.35059515E-02 -0.15080297E-04 -0.30364850E-02  0.29910755E-05
    6    6   -0.23752701E-14  0.30322279E-18  0.24459601E-15 -0.28267552E-18 -0.17360245E-14  0.36337433E-21
    7    6    0.27422757E-02 -0.29350526E-03  0.11817383E-02 -0.16739577E-03  0.20738934E-03 -0.19439958E-04
    8    6    0.14901499E-02  0.28075057E-04  0.12245771E-02  0.12543541E-02  0.33007847E-02  0.77269398E-03
    1    7   -0.19431163E-02 -0.25922475E-03 -0.12671748E-02 -0.10407658E-03  0.77518307E-03  0.93900670E-04
    2    7   -0.34478309E-03 -0.55600446E-04 -0.25600379E-03  0.47045131E-05  0.77420685E-03  0.10740219E-03
    3    7    0.34221199E-02  0.59748138E-03  0.16917309E-02  0.33317498E-03 -0.31446710E-02 -0.55604973E-03
    4    7   -0.24977930E-02 -0.37163791E-03 -0.39798456E-02 -0.64735689E-03 -0.94581740E-03 -0.16145067E-03
    5    7   -0.17609273E-02 -0.18920054E-03  0.19307046E-03  0.34988093E-04  0.32677970E-02  0.32352403E-03
    6    7   -0.27422757E-02 -0.29350526E-03 -0.11817383E-02 -0.16739577E-03 -0.20738934E-03 -0.19439958E-04
    7    7   -0.18735014E-15 -0.36085002E-18 -0.23765712E-15 -0.25443783E-19 -0.13513496E-14  0.25138581E-18
    8    7    0.30725542E-02  0.18895145E-03 -0.23192502E-02  0.93375823E-03  0.46763866E-03  0.10105364E-02
    1    8   -0.13277928E-03 -0.15575935E-02 -0.14658507E-02  0.18510772E-02 -0.15876136E-02  0.26574800E-03
    2    8    0.66209012E-02  0.46431845E-03  0.72034160E-02 -0.12671205E-02 -0.18305768E-02 -0.10372233E-02
    3    8    0.12742702E-02  0.79077569E-03 -0.64572101E-03 -0.18173038E-02  0.37556334E-02 -0.47487711E-04
    4    8    0.12530304E-02  0.17921113E-02 -0.17248691E-02  0.35852574E-03 -0.16614494E-02 -0.17819466E-03
    5    8    0.17609031E-02 -0.12403997E-02  0.18081785E-02  0.43905475E-03  0.11237579E-02 -0.25222281E-03
    6    8   -0.14901499E-02  0.28075057E-04 -0.12245771E-02  0.12543541E-02 -0.33007847E-02  0.77269398E-03
    7    8   -0.30725542E-02  0.18895145E-03  0.23192502E-02  0.93375823E-03 -0.46763866E-03  0.10105364E-02
    8    8    0.66613381E-15 -0.29111461E-16  0.44929338E-15  0.28809342E-16 -0.10755286E-15  0.28812693E-16

    3   -1   -1
    1    1    0.15434274E-03 -0.12239782E-03 -0.14151229E-03  0.45452950E-04 -0.18439857E-03 -0.28095494E-05
    2    1    0.25554170E-02 -0.34071366E-04 -0.46254113E-02 -0.12551017E-03 -0.33531405E-02 -0.56072448E-04
    3    1    0.37779018E-02  0.24855294E-03 -0.95148001E-03  0.50185954E-04 -0.29325297E-02 -0.24321109E-03
    4    1    0.53210817E-02  0.29617546E-03 -0.55202382E-03 -0.48657976E-04 -0.61902541E-03 -0.75609473E-04
    5    1   -0.95623023E-02 -0.40814319E-04 -0.74404776E-02 -0.12304232E-03 -0.73665469E-02 -0.77766097E-04
    6    1   -0.27815854E-02 -0.50987280E-04 -0.52915009E-03 -0.10713384E-03  0.61193568E-02  0.54013876E-04
    7    1   -0.29882307E-02  0.26035151E-03  0.66168619E-02 -0.56057643E-03  0.15238833E-02 -0.13089701E-03
    8    1   -0.26549582E-02  0.18967886E-02  0.23541231E-02 -0.85473522E-03  0.15048873E-02  0.19871660E-03
    1    2    0.53002491E-02 -0.13771999E-03  0.53427411E-02 -0.13048507E-03  0.82979791E-02 -0.18572580E-03
    2    2   -0.17350653E-03  0.88219363E-04  0.12631862E-03  0.14143376E-03 -0.25453171E-03 -0.36427757E-04
    3    2   -0.34032028E-02 -0.17785025E-03  0.46446199E-02  0.27915388E-03 -0.25703843E-02 -0.26435347E-03
    4    2    0.43447149E-02  0.95911241E-04 -0.44752963E-02 -0.21620329E-03  0.75887127E-02  0.32595653E-03
    5    2    0.69166137E-03  0.80969574E-04 -0.55471857E-03  0.13501698E-03  0.22159399E-02  0.16076592E-04
    6    2    0.63291126E-03 -0.61254508E-04 -0.62263611E-03  0.14724706E-04  0.53867596E-02 -0.31802207E-05
    7    2    0.10971480E-02 -0.62746050E-04  0.91870461E-03 -0.14805981E-03  0.33145687E-02 -0.36227673E-03
    8    2   -0.12246858E-02  0.13524852E-02  0.63457191E-03  0.30174468E-02 -0.15243095E-02  0.53337647E-03
    1    3   -0.39037098E-02  0.39291641E-03 -0.10578469E-02  0.91096698E-04  0.27509329E-02 -0.22516123E-03
    2    3    0.83979939E-02 -0.51709322E-03 -0.56434509E-02  0.36274078E-03 -0.53533904E-02  0.33835679E-03
    3    3   -0.15136907E-03  0.33413566E-04 -0.24407940E-03 -0.50280085E-04  0.13383078E-03 -0.85685414E-04
    4    3   -0.26978555E-02  0.10783342E-03 -0.61884090E-02  0.19227243E-03 -0.44327426E-03 -0.23705217E-06
    5    3    0.22300057E-01 -0.17355312E-02  0.22605028E-01 -0.17452829E-02  0.10118105E-01 -0.77377997E-03
    6    3   -0.75282767E-02  0.63250233E-03 -0.43123960E-02  0.42497248E-03  0.43304680E-02 -0.32153926E-03
    7    3    0.68881494E-03 -0.10701342E-03  0.52065738E-02 -0.94496730E-03 -0.23663128E-02  0.37346556E-03
    8    3    0.89189338E-03 -0.69564320E-04 -0.81605322E-02  0.16026987E-02  0.10334518E-01 -0.11383549E-02
    1    4    0.12107379E-02 -0.30708345E-04  0.16977549E-02 -0.22740041E-04  0.17001353E-02 -0.71365273E-04
    2    4   -0.13017984E-02  0.33180923E-04  0.12867492E-02 -0.91848208E-04 -0.41775765E-02  0.18315709E-03
    3    4    0.29230467E-02  0.17014199E-03 -0.19910299E-02 -0.63039710E-04  0.19990587E-02  0.39301781E-04
    4    4   -0.10103677E-03 -0.28045525E-05  0.22610274E-03 -0.44719347E-04  0.12125564E-03 -0.12876759E-04
    5    4   -0.69283404E-02  0.35526932E-03 -0.71344293E-02  0.37462564E-03 -0.71230230E-02  0.36939760E-03
    6    4   -0.58880610E-03  0.32408122E-04  0.36240917E-03 -0.15740108E-04  0.27008085E-04  0.50041047E-04
    7    4    0.84565246E-02 -0.11867663E-02 -0.61096214E-02  0.91025388E-03  0.96672729E-02 -0.14071247E-02
    8    4   -0.51321250E-02  0.30483547E-03  0.65425370E-03 -0.96007648E-03 -0.92933870E-03 -0.19160035E-03
    1    5   -0.23289055E-02  0.11230106E-04  0.19100776E-02 -0.68612001E-05  0.18581329E-02 -0.55419529E-04
    2    5    0.10202661E-02  0.57641112E-04  0.93793908E-02  0.88103760E-04 -0.77381360E-02 -0.12159971E-03
    3    5   -0.65840019E-03 -0.70657194E-04  0.13352454E-02  0.15300205E-03 -0.50183254E-02 -0.42377801E-03
    4    5   -0.14633452E-03 -0.57618035E-04  0.97122182E-03  0.88114600E-04  0.98136793E-03  0.61139579E-04
    5    5   -0.19325220E-03  0.49473339E-04 -0.23644099E-03 -0.69179222E-04 -0.18651482E-03 -0.46017693E-04
    6    5   -0.32608802E-02 -0.69372475E-04  0.16323461E-02  0.12921814E-04  0.41120241E-02 -0.23031919E-04
    7    5    0.77113189E-02 -0.66777658E-03 -0.68795664E-02  0.59671936E-03  0.89156400E-02 -0.73948441E-03
    8    5   -0.30705921E-02  0.72794320E-04  0.25260993E-02  0.12913846E-03  0.33097746E-02  0.14970286E-02
    1    6    0.28965314E-02 -0.14600211E-03  0.19427387E-02  0.51549244E-04  0.22071131E-02 -0.12922782E-04
    2    6   -0.17352538E-02 -0.11429670E-03  0.17439564E-02 -0.14718682E-06  0.13313376E-02  0.11605686E-03
    3    6    0.41728912E-02  0.26708602E-03  0.13347248E-02  0.16995499E-03 -0.12505544E-02 -0.30808147E-04
    4    6    0.49734431E-03  0.20557526E-04 -0.46673847E-03 -0.83189694E-04  0.76968002E-04 -0.44394169E-04
    5    6   -0.90089096E-02  0.45767446E-05 -0.89119453E-02  0.23710217E-04  0.12008570E-02  0.35961670E-04
    6    6    0.16292800E-03 -0.28665339E-04 -0.20605312E-03 -0.45100381E-04  0.12903483E-03 -0.63230363E-04
    7    6    0.26558077E-02 -0.28837868E-03 -0.15458916E-02  0.19992711E-03 -0.53795929E-02  0.51361435E-03
    8    6   -0.16510378E-02  0.72762010E-04  0.49418304E-03 -0.79020534E-03 -0.54824343E-03 -0.86527485E-04
    1    7    0.88709854E-04  0.68152860E-04  0.26641211E-03 -0.41991921E-04  0.14207564E-02  0.78849132E-04
    2    7   -0.40719328E-02 -0.45848028E-03 -0.43261320E-02 -0.27309240E-03  0.20455629E-02  0.24924420E-03
    3    7    0.59504142E-03  0.62198933E-04 -0.97140041E-03 -0.14103229E-03 -0.29870053E-03 -0.26985307E-04
    4    7    0.45275833E-02  0.64244006E-03  0.55430427E-02  0.75574241E-03  0.46116143E-02  0.66528024E-03
    5    7   -0.48629508E-02 -0.43520933E-03 -0.28297106E-02 -0.25834067E-03 -0.38857851E-02 -0.36298146E-03
    6    7    0.20065738E-02  0.22444469E-03  0.21973489E-02  0.15964727E-03  0.90055569E-03  0.39375016E-04
    7    7    0.23784437E-03  0.98352036E-06  0.10411549E-03  0.53800693E-05 -0.26930761E-03  0.17606665E-04
    8    7    0.27873777E-02  0.19728703E-03 -0.57307755E-02 -0.74838261E-03 -0.38177948E-02 -0.35795446E-03
    1    8   -0.79763439E-02 -0.14342125E-02 -0.18966990E-02 -0.52080301E-03 -0.20404604E-02 -0.22908197E-03
    2    8    0.70292325E-02 -0.31259447E-02 -0.11766132E-02 -0.43195077E-03 -0.42926003E-02  0.20101829E-02
    3    8   -0.20360172E-02 -0.36364062E-02  0.26012899E-02  0.36977413E-02  0.34776379E-02  0.11301877E-02
    4    8   -0.13071534E-01 -0.12505220E-02  0.13768775E-03  0.63224482E-04  0.65979296E-04 -0.90979998E-03
    5    8   -0.80020594E-02  0.24185338E-03 -0.25262717E-02 -0.42282286E-03 -0.12538442E-02  0.79255300E-03
    6    8   -0.58173717E-02  0.16033853E-04 -0.36796628E-02 -0.30818771E-02 -0.28686984E-02 -0.23360656E-02
    7    8    0.11510276E-01 -0.23774095E-02 -0.29401978E-02  0.38128878E-03  0.59157675E-02  0.66999859E-03
    8    8   -0.41805954E-01 -0.41737065E-01  0.42197177E-01  0.41821227E-01  0.42113275E-01  0.41941764E-01
