  616

    1
0.0000000000e+00 0.0000000000e+00 0.0000000000e+00
0.0000000000e+00 0.0000000000e+00 0.0000000000e+00
     1      1      1
 1  1  1     0.0000000000e+00
 1  1  2     4.8563632069e+01
 1  1  3    -3.2396097653e+01
 1  2  1     4.8563632069e+01
 1  2  2     0.0000000000e+00
 1  2  3     0.0000000000e+00
 1  3  1    -3.2396097653e+01
 1  3  2     0.0000000000e+00
 1  3  3     0.0000000000e+00
 2  1  1     4.8563632069e+01
 2  1  2     0.0000000000e+00
 2  1  3     0.0000000000e+00
 2  2  1     0.0000000000e+00
 2  2  2    -4.8563632095e+01
 2  2  3    -3.2396097671e+01
 2  3  1     0.0000000000e+00
 2  3  2    -3.2396097671e+01
 2  3  3     0.0000000000e+00
 3  1  1    -3.2396097653e+01
 3  1  2     0.0000000000e+00
 3  1  3     0.0000000000e+00
 3  2  1     0.0000000000e+00
 3  2  2    -3.2396097671e+01
 3  2  3     0.0000000000e+00
 3  3  1     0.0000000000e+00
 3  3  2     0.0000000000e+00
 3  3  3     6.5978498892e+01

    2
0.0000000000e+00 0.0000000000e+00 0.0000000000e+00
0.0000000000e+00 0.0000000000e+00 0.0000000000e+00
     1      1      2
 1  1  1     0.0000000000e+00
 1  1  2     4.7506903230e-01
 1  1  3     4.4529264227e+00
 1  2  1     4.7506903230e-01
 1  2  2     0.0000000000e+00
 1  2  3     0.0000000000e+00
 1  3  1     3.3679742588e+00
 1  3  2     0.0000000000e+00
 1  3  3     0.0000000000e+00
 2  1  1     4.7506903230e-01
 2  1  2     0.0000000000e+00
 2  1  3     0.0000000000e+00
 2  2  1     0.0000000000e+00
 2  2  2    -4.7506903256e-01
 2  2  3     4.4529264251e+00
 2  3  1     0.0000000000e+00
 2  3  2     3.3679742606e+00
 2  3  3     0.0000000000e+00
 3  1  1     3.3679742588e+00
 3  1  2     0.0000000000e+00
 3  1  3     0.0000000000e+00
 3  2  1     0.0000000000e+00
 3  2  2     3.3679742606e+00
 3  2  3     0.0000000000e+00
 3  3  1     0.0000000000e+00
 3  3  2     0.0000000000e+00
 3  3  3    -5.8874847386e+01

    3
0.0000000000e+00 0.0000000000e+00 0.0000000000e+00
0.0000000000e+00 0.0000000000e+00 0.0000000000e+00
     1      1      3
 1  1  1    -4.3142550484e-01
 1  1  2    -2.1058199131e-01
 1  1  3    -4.9004143282e-01
 1  2  1    -1.9256155344e-01
 1  2  2    -1.5421260635e-01
 1  2  3     5.5125974077e-01
 1  3  1    -4.3433814553e-01
 1  3  2     5.3086037666e-01
 1  3  3     1.2888707236e+00
 2  1  1    -1.9256155344e-01
 2  1  2    -1.5421260635e-01
 2  1  3     5.5125974077e-01
 2  2  1    -1.2300029238e-01
 2  2  2     5.3067987491e-01
 2  2  3     1.4649848654e-01
 2  3  1     5.3086037666e-01
 2  3  2     1.7864661713e-01
 2  3  3    -7.4412985944e-01
 3  1  1    -4.3433814553e-01
 3  1  2     5.3086037666e-01
 3  1  3     1.2888707236e+00
 3  2  1     5.3086037666e-01
 3  2  2     1.7864661713e-01
 3  2  3    -7.4412985944e-01
 3  3  1     7.6630378958e-01
 3  3  2    -4.4242569931e-01
 3  3  3    -1.6276981199e+00

    4
0.0000000000e+00 0.0000000000e+00 0.0000000000e+00
3.1511673680e+00 0.0000000000e+00 0.0000000000e+00
     1      1      1
 1  1  1    -2.7999314520e+00
 1  1  2    -5.1964022302e-01
 1  1  3     2.7633062260e-01
 1  2  1     1.1404508661e-02
 1  2  2     3.2534378481e-01
 1  2  3     1.6527754588e-01
 1  3  1     4.8887338409e-02
 1  3  2     1.5533300030e-01
 1  3  3     5.3464795135e-01
 2  1  1     1.1404508661e-02
 2  1  2     3.2534378481e-01
 2  1  3     1.6527754588e-01
 2  2  1     7.1202840873e-01
 2  2  2    -2.7391331583e-01
 2  2  3    -6.8421078486e-03
 2  3  1    -3.8975587723e-02
 2  3  2     4.7847810582e-04
 2  3  3    -6.7056994017e-02
 3  1  1     4.8887338409e-02
 3  1  2     1.5533300030e-01
 3  1  3     5.3464795135e-01
 3  2  1    -3.8975587723e-02
 3  2  2     4.7847810582e-04
 3  2  3    -6.7056994017e-02
 3  3  1     6.6516067328e-01
 3  3  2    -2.2454961746e-02
 3  3  3     2.4104314244e-01

    5
0.0000000000e+00 0.0000000000e+00 0.0000000000e+00
3.1511673680e+00 0.0000000000e+00 0.0000000000e+00
     1      1      3
 1  1  1     4.3142550484e-01
 1  1  2    -2.1058199131e-01
 1  1  3    -4.9004143282e-01
 1  2  1    -1.9256155344e-01
 1  2  2     1.5421260635e-01
 1  2  3    -5.5125974077e-01
 1  3  1    -4.3433814553e-01
 1  3  2    -5.3086037666e-01
 1  3  3    -1.2888707236e+00
 2  1  1    -1.9256155344e-01
 2  1  2     1.5421260635e-01
 2  1  3    -5.5125974077e-01
 2  2  1     1.2300029238e-01
 2  2  2     5.3067987491e-01
 2  2  3     1.4649848654e-01
 2  3  1    -5.3086037666e-01
 2  3  2     1.7864661713e-01
 2  3  3    -7.4412985944e-01
 3  1  1    -4.3433814553e-01
 3  1  2    -5.3086037666e-01
 3  1  3    -1.2888707236e+00
 3  2  1    -5.3086037666e-01
 3  2  2     1.7864661713e-01
 3  2  3    -7.4412985944e-01
 3  3  1    -7.6630378958e-01
 3  3  2    -4.4242569931e-01
 3  3  3    -1.6276981199e+00

    6
0.0000000000e+00 0.0000000000e+00 0.0000000000e+00
-3.1511673680e+00 0.0000000000e+00 0.0000000000e+00
     1      1      1
 1  1  1     2.7999314520e+00
 1  1  2    -5.1964022302e-01
 1  1  3     2.7633062260e-01
 1  2  1     1.1404508661e-02
 1  2  2    -3.2534378481e-01
 1  2  3    -1.6527754588e-01
 1  3  1     4.8887338409e-02
 1  3  2    -1.5533300030e-01
 1  3  3    -5.3464795135e-01
 2  1  1     1.1404508661e-02
 2  1  2    -3.2534378481e-01
 2  1  3    -1.6527754588e-01
 2  2  1    -7.1202840873e-01
 2  2  2    -2.7391331583e-01
 2  2  3    -6.8421078486e-03
 2  3  1     3.8975587723e-02
 2  3  2     4.7847810582e-04
 2  3  3    -6.7056994017e-02
 3  1  1     4.8887338409e-02
 3  1  2    -1.5533300030e-01
 3  1  3    -5.3464795135e-01
 3  2  1     3.8975587723e-02
 3  2  2     4.7847810582e-04
 3  2  3    -6.7056994017e-02
 3  3  1    -6.6516067328e-01
 3  3  2    -2.2454961746e-02
 3  3  3     2.4104314244e-01

    7
0.0000000000e+00 0.0000000000e+00 0.0000000000e+00
-1.5755836840e+00 2.7289909930e+00 0.0000000000e+00
     1      1      1
 1  1  1     1.2445196856e-01
 1  1  2    -1.0837901274e-01
 1  1  3     2.0708562814e-01
 1  2  1    -7.0878008605e-01
 1  2  2     1.3401811614e+00
 1  2  3    -2.0525616209e-01
 1  3  1     6.2964930774e-02
 1  3  2     4.7103289467e-02
 1  3  3    -2.0925091537e-01
 2  1  1    -7.0878008605e-01
 2  1  2     1.3401811614e+00
 2  1  3    -2.0525616209e-01
 2  2  1     1.6067370777e+00
 2  2  2    -1.3030212955e+00
 2  2  3     6.2402886655e-02
 2  3  1    -1.4720529856e-01
 2  3  2    -1.3599114267e-02
 2  3  3     4.9654720508e-01
 3  1  1     6.2964930774e-02
 3  1  2     4.7103289467e-02
 3  1  3    -2.0925091537e-01
 3  2  1    -1.4720529856e-01
 3  2  2    -1.3599114267e-02
 3  2  3     4.9654720508e-01
 3  3  1    -3.1313376933e-01
 3  3  2     5.8727352169e-01
 3  3  3     2.4104314244e-01

    8
0.0000000000e+00 0.0000000000e+00 0.0000000000e+00
1.5755836840e+00 2.7289909930e+00 0.0000000000e+00
     1      1      1
 1  1  1    -1.2445196856e-01
 1  1  2    -1.0837901274e-01
 1  1  3     2.0708562814e-01
 1  2  1    -7.0878008605e-01
 1  2  2    -1.3401811614e+00
 1  2  3     2.0525616209e-01
 1  3  1     6.2964930774e-02
 1  3  2    -4.7103289467e-02
 1  3  3     2.0925091537e-01
 2  1  1    -7.0878008605e-01
 2  1  2    -1.3401811614e+00
 2  1  3     2.0525616209e-01
 2  2  1    -1.6067370777e+00
 2  2  2    -1.3030212955e+00
 2  2  3     6.2402886655e-02
 2  3  1     1.4720529856e-01
 2  3  2    -1.3599114267e-02
 2  3  3     4.9654720508e-01
 3  1  1     6.2964930774e-02
 3  1  2    -4.7103289467e-02
 3  1  3     2.0925091537e-01
 3  2  1     1.4720529856e-01
 3  2  2    -1.3599114267e-02
 3  2  3     4.9654720508e-01
 3  3  1     3.1313376933e-01
 3  3  2     5.8727352169e-01
 3  3  3     2.4104314244e-01

    9
0.0000000000e+00 0.0000000000e+00 0.0000000000e+00
1.5755836840e+00 -2.7289909930e+00 0.0000000000e+00
     1      1      1
 1  1  1     4.4650608878e-01
 1  1  2     4.6083081824e-01
 1  1  3    -7.9183478602e-02
 1  2  1     5.3018715987e-01
 1  2  2    -1.4564606277e+00
 1  2  3    -3.9978616206e-02
 1  3  1    -3.7803544411e-02
 1  3  2    -8.9026592269e-02
 1  3  3     3.2539703598e-01
 2  1  1     5.3018715987e-01
 2  1  2    -1.4564606277e+00
 2  1  3    -3.9978616206e-02
 2  2  1    -8.0322008743e-01
 2  2  2     1.7441230289e+00
 2  2  3     3.4867199355e-01
 2  3  1     1.0528199576e-01
 2  3  2     8.7169360973e-02
 2  3  3    -4.2949021106e-01
 3  1  1    -3.7803544411e-02
 3  1  2    -8.9026592269e-02
 3  1  3     3.2539703598e-01
 3  2  1     1.0528199576e-01
 3  2  2     8.7169360973e-02
 3  2  3    -4.2949021106e-01
 3  3  1     3.5202690395e-01
 3  3  2    -5.6481855994e-01
 3  3  3     2.4104314244e-01

   10
0.0000000000e+00 0.0000000000e+00 0.0000000000e+00
1.5755836840e+00 -2.7289909930e+00 0.0000000000e+00
     1      1      3
 1  1  1     0.0000000000e+00
 1  1  2    -4.2362474700e-01
 1  1  3     4.6476844611e-01
 1  2  1    -4.5966562273e-01
 1  2  2     0.0000000000e+00
 1  2  3     0.0000000000e+00
 1  3  1     4.8513899832e-01
 1  3  2     0.0000000000e+00
 1  3  3     0.0000000000e+00
 2  1  1    -4.5966562273e-01
 2  1  2     0.0000000000e+00
 2  1  3     0.0000000000e+00
 2  2  1     0.0000000000e+00
 2  2  2    -2.1657101976e-01
 2  2  3    -8.0831139290e-01
 2  3  1     0.0000000000e+00
 2  3  2    -7.4083052722e-01
 2  3  3     1.4882597189e+00
 3  1  1     4.8513899832e-01
 3  1  2     0.0000000000e+00
 3  1  3     0.0000000000e+00
 3  2  1     0.0000000000e+00
 3  2  2    -7.4083052722e-01
 3  2  3     1.4882597189e+00
 3  3  1     0.0000000000e+00
 3  3  2     8.8485139863e-01
 3  3  3    -1.6276981199e+00

   11
0.0000000000e+00 0.0000000000e+00 0.0000000000e+00
-1.5755836840e+00 -2.7289909930e+00 0.0000000000e+00
     1      1      1
 1  1  1    -4.4650608878e-01
 1  1  2     4.6083081824e-01
 1  1  3    -7.9183478602e-02
 1  2  1     5.3018715987e-01
 1  2  2     1.4564606277e+00
 1  2  3     3.9978616206e-02
 1  3  1    -3.7803544411e-02
 1  3  2     8.9026592269e-02
 1  3  3    -3.2539703598e-01
 2  1  1     5.3018715987e-01
 2  1  2     1.4564606277e+00
 2  1  3     3.9978616206e-02
 2  2  1     8.0322008743e-01
 2  2  2     1.7441230289e+00
 2  2  3     3.4867199355e-01
 2  3  1    -1.0528199576e-01
 2  3  2     8.7169360973e-02
 2  3  3    -4.2949021106e-01
 3  1  1    -3.7803544411e-02
 3  1  2     8.9026592269e-02
 3  1  3    -3.2539703598e-01
 3  2  1    -1.0528199576e-01
 3  2  2     8.7169360973e-02
 3  2  3    -4.2949021106e-01
 3  3  1    -3.5202690395e-01
 3  3  2    -5.6481855994e-01
 3  3  3     2.4104314244e-01

   12
0.0000000000e+00 0.0000000000e+00 0.0000000000e+00
0.0000000000e+00 0.0000000000e+00 -5.1367602690e+00
     1      1      2
 1  1  1     0.0000000000e+00
 1  1  2    -6.8359071717e-02
 1  1  3     1.0603669365e-01
 1  2  1    -6.8359071717e-02
 1  2  2     0.0000000000e+00
 1  2  3     0.0000000000e+00
 1  3  1     5.8201011527e-02
 1  3  2     0.0000000000e+00
 1  3  3     0.0000000000e+00
 2  1  1    -6.8359071717e-02
 2  1  2     0.0000000000e+00
 2  1  3     0.0000000000e+00
 2  2  1     0.0000000000e+00
 2  2  2     6.8359071754e-02
 2  2  3     1.0603669370e-01
 2  3  1     0.0000000000e+00
 2  3  2     5.8201011558e-02
 2  3  3     0.0000000000e+00
 3  1  1     5.8201011527e-02
 3  1  2     0.0000000000e+00
 3  1  3     0.0000000000e+00
 3  2  1     0.0000000000e+00
 3  2  2     5.8201011558e-02
 3  2  3     0.0000000000e+00
 3  3  1     0.0000000000e+00
 3  3  2     0.0000000000e+00
 3  3  3    -8.1694249825e-01

   13
0.0000000000e+00 0.0000000000e+00 0.0000000000e+00
0.0000000000e+00 0.0000000000e+00 -5.1367602690e+00
     1      1      3
 1  1  1     8.2226413934e-02
 1  1  2    -2.4510840761e-01
 1  1  3     7.2772242424e-02
 1  2  1    -3.0420310871e-01
 1  2  2     6.1527146258e-02
 1  2  3    -4.1909940504e-01
 1  3  1     6.1284672828e-01
 1  3  2    -6.4373438888e-01
 1  3  3     1.1981759950e+00
 2  1  1    -3.0420310871e-01
 2  1  2     6.1527146258e-02
 2  1  3    -4.1909940504e-01
 2  2  1    -4.0827878538e-02
 2  2  2     2.2120695215e-01
 2  2  3    -4.1116206630e-01
 2  3  1    -6.4373438888e-01
 2  3  2    -1.3047371700e-01
 2  3  3    -6.9176723345e-01
 3  1  1     6.1284672828e-01
 3  1  2    -6.4373438888e-01
 3  1  3     1.1981759950e+00
 3  2  1    -6.4373438888e-01
 3  2  2    -1.3047371700e-01
 3  2  3    -6.9176723345e-01
 3  3  1     1.7081316248e+00
 3  3  2    -9.8619025367e-01
 3  3  3     7.5283523279e-01

   14
0.0000000000e+00 0.0000000000e+00 0.0000000000e+00
0.0000000000e+00 0.0000000000e+00 -5.1367602690e+00
     1      1      4
 1  1  1     3.0090838325e+01
 1  1  2    -2.1070525284e+01
 1  1  3     1.4713614400e+01
 1  2  1    -2.1643781815e+01
 1  2  2     1.0361249259e+01
 1  2  3    -9.2891541965e+00
 1  3  1     1.4830168135e+01
 1  3  2    -9.2426246338e+00
 1  3  3     3.2901578715e+00
 2  1  1    -2.1643781815e+01
 2  1  2     1.0361249259e+01
 2  1  3    -9.2891541965e+00
 2  2  1     9.3683398222e+00
 2  2  2    -1.7112418449e+00
 2  2  3     3.9874230530e+00
 2  3  1    -9.2426246338e+00
 2  3  2     4.1577044993e+00
 2  3  3    -1.8995735333e+00
 3  1  1     1.4830168135e+01
 3  1  2    -9.2426246338e+00
 3  1  3     3.2901578715e+00
 3  2  1    -9.2426246338e+00
 3  2  2     4.1577044993e+00
 3  2  3    -1.8995735333e+00
 3  3  1     2.6464776894e+00
 3  3  2    -1.5279446068e+00
 3  3  3    -1.7027932954e+00

   15
0.0000000000e+00 0.0000000000e+00 0.0000000000e+00
3.1511673680e+00 0.0000000000e+00 -5.1367602690e+00
     1      1      3
 1  1  1    -8.2226413934e-02
 1  1  2    -2.4510840761e-01
 1  1  3     7.2772242424e-02
 1  2  1    -3.0420310871e-01
 1  2  2    -6.1527146258e-02
 1  2  3     4.1909940504e-01
 1  3  1     6.1284672828e-01
 1  3  2     6.4373438888e-01
 1  3  3    -1.1981759950e+00
 2  1  1    -3.0420310871e-01
 2  1  2    -6.1527146258e-02
 2  1  3     4.1909940504e-01
 2  2  1     4.0827878538e-02
 2  2  2     2.2120695215e-01
 2  2  3    -4.1116206630e-01
 2  3  1     6.4373438888e-01
 2  3  2    -1.3047371700e-01
 2  3  3    -6.9176723345e-01
 3  1  1     6.1284672828e-01
 3  1  2     6.4373438888e-01
 3  1  3    -1.1981759950e+00
 3  2  1     6.4373438888e-01
 3  2  2    -1.3047371700e-01
 3  2  3    -6.9176723345e-01
 3  3  1    -1.7081316248e+00
 3  3  2    -9.8619025367e-01
 3  3  3     7.5283523279e-01

   16
0.0000000000e+00 0.0000000000e+00 0.0000000000e+00
3.1511673680e+00 0.0000000000e+00 -5.1367602690e+00
     1      1      4
 1  1  1    -3.0090838325e+01
 1  1  2    -2.1070525284e+01
 1  1  3     1.4713614400e+01
 1  2  1    -2.1643781815e+01
 1  2  2    -1.0361249259e+01
 1  2  3     9.2891541965e+00
 1  3  1     1.4830168135e+01
 1  3  2     9.2426246338e+00
 1  3  3    -3.2901578715e+00
 2  1  1    -2.1643781815e+01
 2  1  2    -1.0361249259e+01
 2  1  3     9.2891541965e+00
 2  2  1    -9.3683398222e+00
 2  2  2    -1.7112418449e+00
 2  2  3     3.9874230530e+00
 2  3  1     9.2426246338e+00
 2  3  2     4.1577044993e+00
 2  3  3    -1.8995735333e+00
 3  1  1     1.4830168135e+01
 3  1  2     9.2426246338e+00
 3  1  3    -3.2901578715e+00
 3  2  1     9.2426246338e+00
 3  2  2     4.1577044993e+00
 3  2  3    -1.8995735333e+00
 3  3  1    -2.6464776894e+00
 3  3  2    -1.5279446068e+00
 3  3  3    -1.7027932954e+00

   17
0.0000000000e+00 0.0000000000e+00 0.0000000000e+00
1.5755836840e+00 -2.7289909930e+00 -5.1367602690e+00
     1      1      3
 1  1  1     0.0000000000e+00
 1  1  2    -3.1582436758e-01
 1  1  3    -6.5312922033e-01
 1  2  1    -1.9763496538e-01
 1  2  2     0.0000000000e+00
 1  2  3     0.0000000000e+00
 1  3  1    -5.0213393954e-01
 1  3  2     0.0000000000e+00
 1  3  3     0.0000000000e+00
 2  1  1    -1.9763496538e-01
 2  1  2     0.0000000000e+00
 2  1  3     0.0000000000e+00
 2  2  1     0.0000000000e+00
 2  2  2     3.6362727893e-01
 2  2  3     3.1473939684e-01
 2  3  1     0.0000000000e+00
 2  3  2     9.8450695141e-01
 2  3  3     1.3835344669e+00
 3  1  1    -5.0213393954e-01
 3  1  2     0.0000000000e+00
 3  1  3     0.0000000000e+00
 3  2  1     0.0000000000e+00
 3  2  2     9.8450695141e-01
 3  2  3     1.3835344669e+00
 3  3  1     0.0000000000e+00
 3  3  2     1.9723805073e+00
 3  3  3     7.5283523279e-01

   18
0.0000000000e+00 0.0000000000e+00 0.0000000000e+00
1.5755836840e+00 -2.7289909930e+00 -5.1367602690e+00
     1      1      4
 1  1  1     0.0000000000e+00
 1  1  2    -4.8440847340e+00
 1  1  3    -1.3756726235e+00
 1  2  1    -3.6975716728e+00
 1  2  2     0.0000000000e+00
 1  2  3     0.0000000000e+00
 1  3  1    -1.1785273219e+00
 1  3  2     0.0000000000e+00
 1  3  3     0.0000000000e+00
 2  1  1    -3.6975716728e+00
 2  1  2     0.0000000000e+00
 2  1  3     0.0000000000e+00
 2  2  1     0.0000000000e+00
 2  2  2     5.0407619018e+01
 2  2  3     2.0076710085e+01
 2  3  1     0.0000000000e+00
 2  3  2     2.0166399965e+01
 2  3  3     3.7991470666e+00
 3  1  1    -1.1785273219e+00
 3  1  2     0.0000000000e+00
 3  1  3     0.0000000000e+00
 3  2  1     0.0000000000e+00
 3  2  2     2.0166399965e+01
 3  2  3     3.7991470666e+00
 3  3  1     0.0000000000e+00
 3  3  2     3.0558892136e+00
 3  3  3    -1.7027932954e+00

   19
0.0000000000e+00 0.0000000000e+00 0.0000000000e+00
0.0000000000e+00 0.0000000000e+00 0.0000000000e+00
     1      2      1
 1  1  1     0.0000000000e+00
 1  1  2     4.7506903230e-01
 1  1  3     3.3679742588e+00
 1  2  1     4.7506903230e-01
 1  2  2     0.0000000000e+00
 1  2  3     0.0000000000e+00
 1  3  1     4.4529264227e+00
 1  3  2     0.0000000000e+00
 1  3  3     0.0000000000e+00
 2  1  1     4.7506903230e-01
 2  1  2     0.0000000000e+00
 2  1  3     0.0000000000e+00
 2  2  1     0.0000000000e+00
 2  2  2    -4.7506903256e-01
 2  2  3     3.3679742606e+00
 2  3  1     0.0000000000e+00
 2  3  2     4.4529264251e+00
 2  3  3     0.0000000000e+00
 3  1  1     3.3679742588e+00
 3  1  2     0.0000000000e+00
 3  1  3     0.0000000000e+00
 3  2  1     0.0000000000e+00
 3  2  2     3.3679742606e+00
 3  2  3     0.0000000000e+00
 3  3  1     0.0000000000e+00
 3  3  2     0.0000000000e+00
 3  3  3    -5.8874847386e+01

   20
0.0000000000e+00 0.0000000000e+00 0.0000000000e+00
0.0000000000e+00 0.0000000000e+00 0.0000000000e+00
     1      2      2
 1  1  1     0.0000000000e+00
 1  1  2    -6.0420452772e-01
 1  1  3    -4.5222856540e+00
 1  2  1    -6.0420452772e-01
 1  2  2     0.0000000000e+00
 1  2  3     0.0000000000e+00
 1  3  1    -4.5222856540e+00
 1  3  2     0.0000000000e+00
 1  3  3     0.0000000000e+00
 2  1  1    -6.0420452772e-01
 2  1  2     0.0000000000e+00
 2  1  3     0.0000000000e+00
 2  2  1     0.0000000000e+00
 2  2  2     6.0420452804e-01
 2  2  3    -4.5222856564e+00
 2  3  1     0.0000000000e+00
 2  3  2    -4.5222856564e+00
 2  3  3     0.0000000000e+00
 3  1  1    -4.8891793411e+00
 3  1  2     0.0000000000e+00
 3  1  3     0.0000000000e+00
 3  2  1     0.0000000000e+00
 3  2  2    -4.8891793437e+00
 3  2  3     0.0000000000e+00
 3  3  1     0.0000000000e+00
 3  3  2     0.0000000000e+00
 3  3  3     5.9342498207e+01

   21
0.0000000000e+00 0.0000000000e+00 0.0000000000e+00
0.0000000000e+00 0.0000000000e+00 0.0000000000e+00
     1      2      3
 1  1  1     4.0870396379e-01
 1  1  2     8.3302465879e-03
 1  1  3     1.0245303425e-01
 1  2  1     3.7463251548e-02
 1  2  2     6.4720425099e-02
 1  2  3     4.8719473303e-02
 1  3  1    -5.1350885465e-02
 1  3  2     1.4135177432e-01
 1  3  3     6.4642133327e-02
 2  1  1     8.4829888593e-02
 2  1  2     1.4676184707e-01
 2  1  3     4.8719473303e-02
 2  2  1     1.9722169185e-01
 2  2  2    -3.5816158721e-01
 2  2  3     1.5870943637e-01
 2  3  1     1.4135177432e-01
 2  3  2     1.1186808446e-01
 2  3  3    -3.7321153088e-02
 3  1  1     5.8171486500e-01
 3  1  2    -1.8812586724e-01
 3  1  3    -2.0838548553e-01
 3  2  1    -1.8812586724e-01
 3  2  2     3.6448582506e-01
 3  2  3     1.2031141620e-01
 3  3  1     5.3517222830e-01
 3  3  2    -3.0898183016e-01
 3  3  3     1.3309457184e-01

   22
0.0000000000e+00 0.0000000000e+00 0.0000000000e+00
3.1511673680e+00 0.0000000000e+00 0.0000000000e+00
     1      2      3
 1  1  1    -4.0870396379e-01
 1  1  2     8.3302465879e-03
 1  1  3     1.0245303425e-01
 1  2  1     3.7463251548e-02
 1  2  2    -6.4720425099e-02
 1  2  3    -4.8719473303e-02
 1  3  1    -5.1350885465e-02
 1  3  2    -1.4135177432e-01
 1  3  3    -6.4642133327e-02
 2  1  1     8.4829888593e-02
 2  1  2    -1.4676184707e-01
 2  1  3    -4.8719473303e-02
 2  2  1    -1.9722169185e-01
 2  2  2    -3.5816158721e-01
 2  2  3     1.5870943637e-01
 2  3  1    -1.4135177432e-01
 2  3  2     1.1186808446e-01
 2  3  3    -3.7321153088e-02
 3  1  1     5.8171486500e-01
 3  1  2     1.8812586724e-01
 3  1  3     2.0838548553e-01
 3  2  1     1.8812586724e-01
 3  2  2     3.6448582506e-01
 3  2  3     1.2031141620e-01
 3  3  1    -5.3517222830e-01
 3  3  2    -3.0898183016e-01
 3  3  3     1.3309457184e-01

   23
0.0000000000e+00 0.0000000000e+00 0.0000000000e+00
1.5755836840e+00 -2.7289909930e+00 0.0000000000e+00
     1      2      3
 1  1  1     0.0000000000e+00
 1  1  2     3.4992823713e-01
 1  1  3     1.8683763730e-01
 1  2  1     2.9166222721e-01
 1  2  2     0.0000000000e+00
 1  2  3     0.0000000000e+00
 1  3  1     1.9347756934e-01
 1  3  2     0.0000000000e+00
 1  3  3     0.0000000000e+00
 2  1  1     1.9692895312e-01
 2  1  2     0.0000000000e+00
 2  1  3     0.0000000000e+00
 2  2  1     0.0000000000e+00
 2  2  2     3.4973444391e-01
 2  2  3     7.4324833270e-02
 2  3  1     0.0000000000e+00
 2  3  2    -1.3296037047e-01
 2  3  3     7.4642306175e-02
 3  1  1     2.5587130480e-01
 3  1  2     0.0000000000e+00
 3  1  3     0.0000000000e+00
 3  2  1     0.0000000000e+00
 3  2  2     6.9032938544e-01
 3  2  3    -2.4062283239e-01
 3  3  1     0.0000000000e+00
 3  3  2     6.1796366031e-01
 3  3  3     1.3309457184e-01

   24
0.0000000000e+00 0.0000000000e+00 0.0000000000e+00
0.0000000000e+00 0.0000000000e+00 -5.1367602690e+00
     1      2      4
 1  1  1     1.7761690981e-01
 1  1  2    -1.9367313048e-01
 1  1  3     2.6593208756e-01
 1  2  1    -9.7310947879e-02
 1  2  2    -5.2207864697e-02
 1  2  3    -2.0342055619e-02
 1  3  1    -8.1925011045e-02
 1  3  2     1.2953723949e-01
 1  3  3     1.4759296622e-01
 2  1  1    -4.9005116726e-02
 2  1  2     3.1460289184e-02
 2  1  3    -2.0342055619e-02
 2  2  1     1.9836448542e-01
 2  2  2    -2.3399829276e-02
 2  2  3     2.4244310512e-01
 2  3  1     1.2953723949e-01
 2  3  2     6.7651709135e-02
 2  3  3    -8.5212838802e-02
 3  1  1     1.4789521711e-02
 3  1  2     3.3217491698e-02
 3  1  3    -1.2826396720e-01
 3  2  1     3.3217491698e-02
 3  2  2     5.3145777277e-02
 3  2  3     7.4053236009e-02
 3  3  1     1.9353951820e-01
 3  3  2    -1.1174009296e-01
 3  3  3    -2.8897804420e-01

   25
0.0000000000e+00 0.0000000000e+00 0.0000000000e+00
3.1511673680e+00 0.0000000000e+00 -5.1367602690e+00
     1      2      4
 1  1  1    -1.7761690981e-01
 1  1  2    -1.9367313048e-01
 1  1  3     2.6593208756e-01
 1  2  1    -9.7310947879e-02
 1  2  2     5.2207864697e-02
 1  2  3     2.0342055619e-02
 1  3  1    -8.1925011045e-02
 1  3  2    -1.2953723949e-01
 1  3  3    -1.4759296622e-01
 2  1  1    -4.9005116726e-02
 2  1  2    -3.1460289184e-02
 2  1  3     2.0342055619e-02
 2  2  1    -1.9836448542e-01
 2  2  2    -2.3399829276e-02
 2  2  3     2.4244310512e-01
 2  3  1    -1.2953723949e-01
 2  3  2     6.7651709135e-02
 2  3  3    -8.5212838802e-02
 3  1  1     1.4789521711e-02
 3  1  2    -3.3217491698e-02
 3  1  3     1.2826396720e-01
 3  2  1    -3.3217491698e-02
 3  2  2     5.3145777277e-02
 3  2  3     7.4053236009e-02
 3  3  1    -1.9353951820e-01
 3  3  2    -1.1174009296e-01
 3  3  3    -2.8897804420e-01

   26
0.0000000000e+00 0.0000000000e+00 0.0000000000e+00
1.5755836840e+00 -2.7289909930e+00 -5.1367602690e+00
     1      2      4
 1  1  1     0.0000000000e+00
 1  1  2     1.4990423659e-01
 1  1  3     2.3069861371e-01
 1  2  1    -4.2820128606e-02
 1  2  2     0.0000000000e+00
 1  2  3     0.0000000000e+00
 1  3  1     1.4244006917e-01
 1  3  2     0.0000000000e+00
 1  3  3     0.0000000000e+00
 2  1  1    -1.3943179091e-01
 2  1  2     0.0000000000e+00
 2  1  3     0.0000000000e+00
 2  2  1     0.0000000000e+00
 2  2  2     2.8424168304e-01
 2  2  3     2.7767657899e-01
 2  3  1     0.0000000000e+00
 2  3  2    -1.5671337120e-01
 2  3  3     1.7042567760e-01
 3  1  1     7.2323905017e-02
 3  1  2     0.0000000000e+00
 3  1  3     0.0000000000e+00
 3  2  1     0.0000000000e+00
 3  2  2    -4.3886060595e-03
 3  2  3    -1.4810647202e-01
 3  3  1     0.0000000000e+00
 3  3  2     2.2348018593e-01
 3  3  3    -2.8897804420e-01

   27
0.0000000000e+00 0.0000000000e+00 0.0000000000e+00
0.0000000000e+00 0.0000000000e+00 0.0000000000e+00
     1      3      1
 1  1  1    -4.3142550484e-01
 1  1  2    -1.9256155344e-01
 1  1  3    -4.3433814553e-01
 1  2  1    -2.1058199131e-01
 1  2  2    -1.5421260635e-01
 1  2  3     5.3086037666e-01
 1  3  1    -4.9004143282e-01
 1  3  2     5.5125974077e-01
 1  3  3     1.2888707236e+00
 2  1  1    -1.9256155344e-01
 2  1  2    -1.2300029238e-01
 2  1  3     5.3086037666e-01
 2  2  1    -1.5421260635e-01
 2  2  2     5.3067987491e-01
 2  2  3     1.7864661713e-01
 2  3  1     5.5125974077e-01
 2  3  2     1.4649848654e-01
 2  3  3    -7.4412985944e-01
 3  1  1    -4.3433814553e-01
 3  1  2     5.3086037666e-01
 3  1  3     7.6630378958e-01
 3  2  1     5.3086037666e-01
 3  2  2     1.7864661713e-01
 3  2  3    -4.4242569931e-01
 3  3  1     1.2888707236e+00
 3  3  2    -7.4412985944e-01
 3  3  3    -1.6276981199e+00

   28
0.0000000000e+00 0.0000000000e+00 0.0000000000e+00
0.0000000000e+00 0.0000000000e+00 0.0000000000e+00
     1      3      2
 1  1  1     4.0870396379e-01
 1  1  2     3.7463251548e-02
 1  1  3    -5.1350885465e-02
 1  2  1     8.3302465879e-03
 1  2  2     6.4720425099e-02
 1  2  3     1.4135177432e-01
 1  3  1     1.0245303425e-01
 1  3  2     4.8719473303e-02
 1  3  3     6.4642133327e-02
 2  1  1     8.4829888593e-02
 2  1  2     1.9722169185e-01
 2  1  3     1.4135177432e-01
 2  2  1     1.4676184707e-01
 2  2  2    -3.5816158721e-01
 2  2  3     1.1186808446e-01
 2  3  1     4.8719473303e-02
 2  3  2     1.5870943637e-01
 2  3  3    -3.7321153088e-02
 3  1  1     5.8171486500e-01
 3  1  2    -1.8812586724e-01
 3  1  3     5.3517222830e-01
 3  2  1    -1.8812586724e-01
 3  2  2     3.6448582506e-01
 3  2  3    -3.0898183016e-01
 3  3  1    -2.0838548553e-01
 3  3  2     1.2031141620e-01
 3  3  3     1.3309457184e-01

   29
0.0000000000e+00 0.0000000000e+00 0.0000000000e+00
0.0000000000e+00 0.0000000000e+00 0.0000000000e+00
     1      3      3
 1  1  1    -8.2226413934e-02
 1  1  2     3.0420310871e-01
 1  1  3     6.1284672828e-01
 1  2  1     3.0420310871e-01
 1  2  2     4.0827878538e-02
 1  2  3    -6.4373438888e-01
 1  3  1     6.1284672828e-01
 1  3  2    -6.4373438888e-01
 1  3  3    -1.7081316248e+00
 2  1  1     2.4510840761e-01
 2  1  2    -6.1527146258e-02
 2  1  3    -6.4373438888e-01
 2  2  1    -6.1527146258e-02
 2  2  2    -2.2120695215e-01
 2  2  3    -1.3047371700e-01
 2  3  1    -6.4373438888e-01
 2  3  2    -1.3047371700e-01
 2  3  3     9.8619025367e-01
 3  1  1     7.2772242424e-02
 3  1  2    -4.1909940504e-01
 3  1  3    -1.1981759950e+00
 3  2  1    -4.1909940504e-01
 3  2  2    -4.1116206630e-01
 3  2  3     6.9176723345e-01
 3  3  1    -1.1981759950e+00
 3  3  2     6.9176723345e-01
 3  3  3     7.5283523279e-01

   30
0.0000000000e+00 0.0000000000e+00 0.0000000000e+00
3.1511673680e+00 0.0000000000e+00 0.0000000000e+00
     1      3      3
 1  1  1     0.0000000000e+00
 1  1  2    -1.4258200425e-01
 1  1  3    -6.7991929527e-02
 1  2  1    -1.4258200425e-01
 1  2  2     0.0000000000e+00
 1  2  3    -1.5730575897e-02
 1  3  1    -6.7991929527e-02
 1  3  2     1.5730575897e-02
 1  3  3     0.0000000000e+00
 2  1  1    -7.1671911904e-02
 2  1  2    -1.2851109077e-03
 2  1  3     2.6575923744e-02
 2  2  1     1.2851109077e-03
 2  2  2    -1.2516286536e-01
 2  2  3    -8.4729754298e-03
 2  3  1    -2.6575923744e-02
 2  3  2    -8.4729754298e-03
 2  3  3    -2.7121008819e-02
 3  1  1    -1.9387807066e-01
 3  1  2    -6.7667451076e-02
 3  1  3    -7.0312246864e-02
 3  2  1     6.7667451076e-02
 3  2  2     4.3461403967e-02
 3  2  3     6.4795259672e-03
 3  3  1     7.0312246864e-02
 3  3  2     6.4795259672e-03
 3  3  3     1.9085081479e-01

   31
0.0000000000e+00 0.0000000000e+00 0.0000000000e+00
-3.1511673680e+00 0.0000000000e+00 0.0000000000e+00
     1      3      1
 1  1  1     0.0000000000e+00
 1  1  2     2.8006495525e-02
 1  1  3    -7.2586967880e-02
 1  2  1    -1.7026015309e-02
 1  2  2    -1.0533678085e-02
 1  2  3    -2.5443416870e-02
 1  3  1    -1.2456774709e-01
 1  3  2    -3.6954980717e-02
 1  3  3     5.1917370004e-02
 2  1  1     2.8006495525e-02
 2  1  2     0.0000000000e+00
 2  1  3     6.4335305360e-04
 2  2  1     1.0533678085e-02
 2  2  2     1.4059738705e-02
 2  2  3    -1.6951067576e-02
 2  3  1     3.6954980717e-02
 2  3  2    -7.5355452918e-03
 2  3  3    -4.2512131469e-02
 3  1  1    -7.2586967880e-02
 3  1  2    -6.4335305360e-04
 3  1  3     0.0000000000e+00
 3  2  1     2.5443416870e-02
 3  2  2    -1.6951067576e-02
 3  2  3    -3.8406951367e-03
 3  3  1    -5.1917370004e-02
 3  3  2    -4.2512131469e-02
 3  3  3     1.1164143589e-01

   32
0.0000000000e+00 0.0000000000e+00 0.0000000000e+00
-1.5755836840e+00 2.7289909930e+00 0.0000000000e+00
     1      3      1
 1  1  1    -1.7572996009e-02
 1  1  2    -1.3777966686e-02
 1  1  3    -2.0121300008e-02
 1  2  1     1.7860721546e-02
 1  2  2    -2.4124270512e-02
 1  2  3     3.0934420531e-02
 1  3  1    -3.6793595737e-02
 1  3  2     8.7631410640e-02
 1  3  3     6.2775270813e-02
 2  1  1     4.4668989432e-03
 2  1  2     2.0141866920e-02
 2  1  3     4.8476506068e-03
 2  2  1    -1.3590592427e-02
 2  2  2    -1.6377583249e-02
 2  2  3    -6.9416735477e-02
 2  3  1     1.3721449206e-02
 2  3  2    -9.5309696688e-02
 2  3  3    -2.3705695599e-02
 3  1  1    -4.1598785283e-02
 3  1  2     4.3334452439e-02
 3  1  3     3.3261395556e-03
 3  2  1     1.7247682515e-02
 3  2  2    -4.7939250190e-02