phono3py:
  version: 1.13.3
  calculator: vasp
  configuration:
    displacement_distance: "0.09"
    cell_filename: "POSCAR-unitcell"
    create_displacements: ".true."
    dim: "2 2 2"

physical_unit:
  length: Angstrom
  atomic_mass: AMU

supercell_matrix:
- [   2,   0,   0 ]
- [   0,   2,   0 ]
- [   0,   0,   2 ]

primitive_cell:
  lattice:
  - [     0.000000000000000,     2.733131445000000,     2.733131445000000 ] # a
  - [     2.733131445000000,     0.000000000000000,     2.733131445000000 ] # b
  - [     2.733131445000000,     2.733131445000000,     0.000000000000000 ] # c
  points:
  - symbol: Si # 1
    coordinates: [  0.750000000000000,  0.750000000000000,  0.750000000000000 ]
    mass: 28.085500
  - symbol: Si # 2
    coordinates: [  0.500000000000000,  0.500000000000000,  0.500000000000000 ]
    mass: 28.085500
  reciprocal_lattice: # without 2pi
  - [    -0.182940341531946,     0.182940341531946,     0.182940341531946 ] # a*
  - [     0.182940341531946,    -0.182940341531946,     0.182940341531946 ] # b*
  - [     0.182940341531946,     0.182940341531946,    -0.182940341531946 ] # c*

unit_cell:
  lattice:
  - [     0.000000000000000,     2.733131445000000,     2.733131445000000 ] # a
  - [     2.733131445000000,     0.000000000000000,     2.733131445000000 ] # b
  - [     2.733131445000000,     2.733131445000000,     0.000000000000000 ] # c
  points:
  - symbol: Si # 1
    coordinates: [  0.750000000000000,  0.750000000000000,  0.750000000000000 ]
    mass: 28.085500
    reduced_to: 1
  - symbol: Si # 2
    coordinates: [  0.500000000000000,  0.500000000000000,  0.500000000000000 ]
    mass: 28.085500
    reduced_to: 2

supercell:
  lattice:
  - [     0.000000000000000,     5.466262890000000,     5.466262890000000 ] # a
  - [     5.466262890000000,     0.000000000000000,     5.466262890000000 ] # b
  - [     5.466262890000000,     5.466262890000000,     0.000000000000000 ] # c
  points:
  - symbol: Si # 1
    coordinates: [  0.375000000000000,  0.375000000000000,  0.375000000000000 ]
    mass: 28.085500
    reduced_to: 1
  - symbol: Si # 2
    coordinates: [  0.875000000000000,  0.375000000000000,  0.375000000000000 ]
    mass: 28.085500
    reduced_to: 1
  - symbol: Si # 3
    coordinates: [  0.375000000000000,  0.875000000000000,  0.375000000000000 ]
    mass: 28.085500
    reduced_to: 1
  - symbol: Si # 4
    coordinates: [  0.875000000000000,  0.875000000000000,  0.375000000000000 ]
    mass: 28.085500
    reduced_to: 1
  - symbol: Si # 5
    coordinates: [  0.375000000000000,  0.375000000000000,  0.875000000000000 ]
    mass: 28.085500
    reduced_to: 1
  - symbol: Si # 6
    coordinates: [  0.875000000000000,  0.375000000000000,  0.875000000000000 ]
    mass: 28.085500
    reduced_to: 1
  - symbol: Si # 7
    coordinates: [  0.375000000000000,  0.875000000000000,  0.875000000000000 ]
    mass: 28.085500
    reduced_to: 1
  - symbol: Si # 8
    coordinates: [  0.875000000000000,  0.875000000000000,  0.875000000000000 ]
    mass: 28.085500
    reduced_to: 1
  - symbol: Si # 9
    coordinates: [  0.250000000000000,  0.250000000000000,  0.250000000000000 ]
    mass: 28.085500
    reduced_to: 9
  - symbol: Si # 10
    coordinates: [  0.750000000000000,  0.250000000000000,  0.250000000000000 ]
    mass: 28.085500
    reduced_to: 9
  - symbol: Si # 11
    coordinates: [  0.250000000000000,  0.750000000000000,  0.250000000000000 ]
    mass: 28.085500
    reduced_to: 9
  - symbol: Si # 12
    coordinates: [  0.750000000000000,  0.750000000000000,  0.250000000000000 ]
    mass: 28.085500
    reduced_to: 9
  - symbol: Si # 13
    coordinates: [  0.250000000000000,  0.250000000000000,  0.750000000000000 ]
    mass: 28.085500
    reduced_to: 9
  - symbol: Si # 14
    coordinates: [  0.750000000000000,  0.250000000000000,  0.750000000000000 ]
    mass: 28.085500
    reduced_to: 9
  - symbol: Si # 15
    coordinates: [  0.250000000000000,  0.750000000000000,  0.750000000000000 ]
    mass: 28.085500
    reduced_to: 9
  - symbol: Si # 16
    coordinates: [  0.750000000000000,  0.750000000000000,  0.750000000000000 ]
    mass: 28.085500
    reduced_to: 9
