 1680

    1
0.0000000000e+00 0.0000000000e+00 0.0000000000e+00
0.0000000000e+00 0.0000000000e+00 0.0000000000e+00
     1      1      1
 1  1  1     0.0000000000e+00
 1  1  2     4.6215123460e+01
 1  1  3    -3.2792107979e+01
 1  2  1     4.6215123460e+01
 1  2  2     0.0000000000e+00
 1  2  3     0.0000000000e+00
 1  3  1    -3.2792107979e+01
 1  3  2     0.0000000000e+00
 1  3  3     0.0000000000e+00
 2  1  1     4.6215123460e+01
 2  1  2     0.0000000000e+00
 2  1  3     0.0000000000e+00
 2  2  1     0.0000000000e+00
 2  2  2    -4.6215123460e+01
 2  2  3    -3.2792107979e+01
 2  3  1     0.0000000000e+00
 2  3  2    -3.2792107979e+01
 2  3  3     0.0000000000e+00
 3  1  1    -3.2792107979e+01
 3  1  2     0.0000000000e+00
 3  1  3     0.0000000000e+00
 3  2  1     0.0000000000e+00
 3  2  2    -3.2792107979e+01
 3  2  3     0.0000000000e+00
 3  3  1     0.0000000000e+00
 3  3  2     0.0000000000e+00
 3  3  3     6.6524844585e+01

    2
0.0000000000e+00 0.0000000000e+00 0.0000000000e+00
0.0000000000e+00 0.0000000000e+00 0.0000000000e+00
     1      1      3
 1  1  1     9.5669399854e-01
 1  1  2    -7.8689160049e-02
 1  1  3    -3.4598325703e-01
 1  2  1    -3.5677116974e-02
 1  2  2     2.9406498487e-01
 1  2  3     4.6171828243e-01
 1  3  1    -7.7169160344e-01
 1  3  2     5.7084186443e-01
 1  3  3    -1.1904195889e+00
 2  1  1    -3.5677116974e-02
 2  1  2     2.9406498487e-01
 2  1  3     4.6171828243e-01
 2  2  1     3.6856402881e-01
 2  2  2    -6.8644891879e-01
 2  2  3     1.8716309227e-01
 2  3  1     5.7084186443e-01
 2  3  2    -1.1254019525e-01
 2  3  3     6.8728907010e-01
 3  1  1    -7.7169160344e-01
 3  1  2     5.7084186443e-01
 3  1  3    -1.1904195889e+00
 3  2  1     5.7084186443e-01
 3  2  2    -1.1254019525e-01
 3  2  3     6.8728907010e-01
 3  3  1    -1.2281002800e+00
 3  3  2     7.0904402726e-01
 3  3  3    -1.2989180989e+00

    3
0.0000000000e+00 0.0000000000e+00 0.0000000000e+00
0.0000000000e+00 0.0000000000e+00 0.0000000000e+00
     1      1      6
 1  1  1     0.0000000000e+00
 1  1  2    -3.2273353499e-01
 1  1  3    -8.1568880071e-01
 1  2  1     6.8084720607e-02
 1  2  2     0.0000000000e+00
 1  2  3     0.0000000000e+00
 1  3  1    -6.7442614136e-01
 1  3  2     0.0000000000e+00
 1  3  3     0.0000000000e+00
 2  1  1     6.8084720607e-02
 2  1  2     0.0000000000e+00
 2  1  3     0.0000000000e+00
 2  2  1     0.0000000000e+00
 2  2  2    -4.3671870927e-01
 2  2  3     1.9264745090e-02
 2  3  1     0.0000000000e+00
 2  3  2     8.6106805560e-01
 2  3  3     1.4828206960e+00
 3  1  1    -6.7442614136e-01
 3  1  2     0.0000000000e+00
 3  1  3     0.0000000000e+00
 3  2  1     0.0000000000e+00
 3  2  2     8.6106805560e-01
 3  2  3     1.4828206960e+00
 3  3  1     0.0000000000e+00
 3  3  2     1.8618784274e+00
 3  3  3     4.0621975935e-01

    4
0.0000000000e+00 0.0000000000e+00 0.0000000000e+00
0.0000000000e+00 0.0000000000e+00 0.0000000000e+00
     1      1      7
 1  1  1     0.0000000000e+00
 1  1  2    -3.4041528498e+00
 1  1  3    -2.4228061315e-01
 1  2  1    -2.7638252019e+00
 1  2  2     0.0000000000e+00
 1  2  3     0.0000000000e+00
 1  3  1    -9.1267030926e-02
 1  3  2     0.0000000000e+00
 1  3  3     0.0000000000e+00
 2  1  1    -2.7638252019e+00
 2  1  2     0.0000000000e+00
 2  1  3     0.0000000000e+00
 2  2  1     0.0000000000e+00
 2  2  2     5.3616523705e+01
 2  2  3     2.0438649541e+01
 2  3  1     0.0000000000e+00
 2  3  2     2.1234299136e+01
 2  3  3     5.2779774460e+00
 3  1  1    -9.1267030926e-02
 3  1  2     0.0000000000e+00
 3  1  3     0.0000000000e+00
 3  2  1     0.0000000000e+00
 3  2  2     2.1234299136e+01
 3  2  3     5.2779774460e+00
 3  3  1     0.0000000000e+00
 3  3  2     4.3775743937e+00
 3  3  3    -1.0261509078e+00

    5
0.0000000000e+00 0.0000000000e+00 0.0000000000e+00
0.0000000000e+00 0.0000000000e+00 0.0000000000e+00
     1      1      9
 1  1  1     0.0000000000e+00
 1  1  2    -8.0712106181e-01
 1  1  3     3.2246097313e+00
 1  2  1    -8.0712106181e-01
 1  2  2     0.0000000000e+00
 1  2  3     0.0000000000e+00
 1  3  1     2.4693701017e+00
 1  3  2     0.0000000000e+00
 1  3  3     0.0000000000e+00
 2  1  1    -8.0712106181e-01
 2  1  2     0.0000000000e+00
 2  1  3     0.0000000000e+00
 2  2  1     0.0000000000e+00
 2  2  2     8.0712106181e-01
 2  2  3     3.2246097313e+00
 2  3  1     0.0000000000e+00
 2  3  2     2.4693701017e+00
 2  3  3     0.0000000000e+00
 3  1  1     2.4693701017e+00
 3  1  2     0.0000000000e+00
 3  1  3     0.0000000000e+00
 3  2  1     0.0000000000e+00
 3  2  2     2.4693701017e+00
 3  2  3     0.0000000000e+00
 3  3  1     0.0000000000e+00
 3  3  2     0.0000000000e+00
 3  3  3    -6.2932003650e+01

    6
0.0000000000e+00 0.0000000000e+00 0.0000000000e+00
3.0739904182e+00 0.0000000000e+00 0.0000000000e+00
     1      1      1
 1  1  1    -3.2460178679e+00
 1  1  2    -1.6634652835e-01
 1  1  3     2.3451870925e-01
 1  2  1     9.7388556604e-02
 1  2  2     5.8186592670e-01
 1  2  3     5.6319012327e-03
 1  3  1    -3.5109322070e-02
 1  3  2     8.6332028766e-03
 1  3  3     6.8210221211e-01
 2  1  1     9.7388556604e-02
 2  1  2     5.8186592670e-01
 2  1  3     5.6319012327e-03
 2  2  1     1.0320013582e+00
 2  2  2    -6.7663762879e-01
 2  2  3    -9.5256622233e-02
 2  3  1    -2.1575721046e-01
 2  3  2    -8.5377870294e-02
 2  3  3    -5.3180608278e-02
 3  1  1    -3.5109322070e-02
 3  1  2     8.6332028766e-03
 3  1  3     6.8210221211e-01
 3  2  1    -2.1575721046e-01
 3  2  2    -8.5377870294e-02
 3  2  3    -5.3180608278e-02
 3  3  1     8.3825257033e-01
 3  3  2    -1.2708478762e-01
 3  3  3     5.3113311779e-01

    7
0.0000000000e+00 0.0000000000e+00 0.0000000000e+00
-3.0739904182e+00 0.0000000000e+00 0.0000000000e+00
     1      1      1
 1  1  1     3.2460178679e+00
 1  1  2    -1.6634652835e-01
 1  1  3     2.3451870925e-01
 1  2  1     9.7388556604e-02
 1  2  2    -5.8186592670e-01
 1  2  3    -5.6319012327e-03
 1  3  1    -3.5109322070e-02
 1  3  2    -8.6332028766e-03
 1  3  3    -6.8210221211e-01
 2  1  1     9.7388556604e-02
 2  1  2    -5.8186592670e-01
 2  1  3    -5.6319012327e-03
 2  2  1    -1.0320013582e+00
 2  2  2    -6.7663762879e-01
 2  2  3    -9.5256622233e-02
 2  3  1     2.1575721046e-01
 2  3  2    -8.5377870294e-02
 2  3  3    -5.3180608278e-02
 3  1  1    -3.5109322070e-02
 3  1  2    -8.6332028766e-03
 3  1  3    -6.8210221211e-01
 3  2  1     2.1575721046e-01
 3  2  2    -8.5377870294e-02
 3  2  3    -5.3180608278e-02
 3  3  1    -8.3825257033e-01
 3  3  2    -1.2708478762e-01
 3  3  3     5.3113311779e-01

    8
0.0000000000e+00 0.0000000000e+00 0.0000000000e+00
-3.0739904182e+00 0.0000000000e+00 0.0000000000e+00
     1      1      3
 1  1  1    -9.5669399854e-01
 1  1  2    -7.8689160049e-02
 1  1  3    -3.4598325703e-01
 1  2  1    -3.5677116974e-02
 1  2  2    -2.9406498487e-01
 1  2  3    -4.6171828243e-01
 1  3  1    -7.7169160344e-01
 1  3  2    -5.7084186443e-01
 1  3  3     1.1904195889e+00
 2  1  1    -3.5677116974e-02
 2  1  2    -2.9406498487e-01
 2  1  3    -4.6171828243e-01
 2  2  1    -3.6856402881e-01
 2  2  2    -6.8644891879e-01
 2  2  3     1.8716309227e-01
 2  3  1    -5.7084186443e-01
 2  3  2    -1.1254019525e-01
 2  3  3     6.8728907010e-01
 3  1  1    -7.7169160344e-01
 3  1  2    -5.7084186443e-01
 3  1  3     1.1904195889e+00
 3  2  1    -5.7084186443e-01
 3  2  2    -1.1254019525e-01
 3  2  3     6.8728907010e-01
 3  3  1     1.2281002800e+00
 3  3  2     7.0904402726e-01
 3  3  3    -1.2989180989e+00

    9
0.0000000000e+00 0.0000000000e+00 0.0000000000e+00
-1.5369952091e+00 2.6621537932e+00 0.0000000000e+00
     1      1      1
 1  1  1     1.5685908702e-02
 1  1  2     6.3139568282e-02
 1  1  3    -7.9354198238e-03
 1  2  1    -4.5855669305e-01
 1  2  2     1.8180344735e+00
 1  2  3    -1.4561285792e-01
 1  3  1    -1.6249805939e-01
 1  3  2     1.4220928868e-01
 1  3  3    -2.9499534830e-01
 2  1  1    -4.5855669305e-01
 2  1  2     1.8180344735e+00
 2  1  3    -1.4561285792e-01
 2  2  1     1.8213680412e+00
 2  2  2    -1.5590420315e+00
 2  2  3     1.4719750684e-01
 2  3  1    -8.2181124658e-02
 2  3  2     4.2010867023e-02
 2  3  3     6.1730814780e-01
 3  1  1    -1.6249805939e-01
 3  1  2     1.4220928868e-01
 3  1  3    -2.9499534830e-01
 3  2  1    -8.2181124658e-02
 3  2  2     4.2010867023e-02
 3  2  3     6.1730814780e-01
 3  3  1    -3.0906763065e-01
 3  3  2     7.8949041450e-01
 3  3  3     5.3113311779e-01

   10
0.0000000000e+00 0.0000000000e+00 0.0000000000e+00
-1.5369952091e+00 2.6621537932e+00 0.0000000000e+00
     1      1      3
 1  1  1     0.0000000000e+00
 1  1  2     5.5968246369e-01
 1  1  3     4.5373626693e-01
 1  2  1     4.7365837754e-01
 1  2  2     0.0000000000e+00
 1  2  3     0.0000000000e+00
 1  3  1     2.1703550884e-01
 1  3  2     0.0000000000e+00
 1  3  3     0.0000000000e+00
 2  1  1     4.7365837754e-01
 2  1  2     0.0000000000e+00
 2  1  3     0.0000000000e+00
 2  2  1     0.0000000000e+00
 2  2  2     9.7059369398e-01
 2  2  3    -6.1255643168e-01
 2  3  1     0.0000000000e+00
 2  3  2    -1.1012673075e+00
 2  3  3    -1.3745781402e+00
 3  1  1     2.1703550884e-01
 3  1  2     0.0000000000e+00
 3  1  3     0.0000000000e+00
 3  2  1     0.0000000000e+00
 3  2  2    -1.1012673075e+00
 3  2  3    -1.3745781402e+00
 3  3  1     0.0000000000e+00
 3  3  2    -1.4180880545e+00
 3  3  3    -1.2989180989e+00

   11
0.0000000000e+00 0.0000000000e+00 0.0000000000e+00
-1.5369952091e+00 2.6621537932e+00 0.0000000000e+00
     1      1      6
 1  1  1    -3.2404943356e-01
 1  1  2     2.5517474831e-01
 1  1  3    -1.8947364136e-01
 1  2  1     5.9765620506e-02
 1  2  2     4.8030346829e-03
 1  2  3    -3.6154549082e-01
 1  3  1     4.7719450636e-01
 1  3  2    -6.6488849096e-01
 1  3  3     1.2841603920e+00
 2  1  1     5.9765620506e-02
 2  1  2     4.8030346829e-03
 2  1  3    -3.6154549082e-01
 2  2  1    -3.3365550293e-01
 2  2  2     1.2455137383e-01
 2  2  3    -6.0695041426e-01
 2  3  1    -6.6488849096e-01
 2  3  2    -2.9055259212e-01
 2  3  3    -7.4141034800e-01
 3  1  1     4.7719450636e-01
 3  1  2    -6.6488849096e-01
 3  1  3     1.2841603920e+00
 3  2  1    -6.6488849096e-01
 3  2  2    -2.9055259212e-01
 3  2  3    -7.4141034800e-01
 3  3  1     1.6124340169e+00
 3  3  2    -9.3093921370e-01
 3  3  3     4.0621975935e-01

   12
0.0000000000e+00 0.0000000000e+00 0.0000000000e+00
-1.5369952091e+00 2.6621537932e+00 0.0000000000e+00
     1      1      7
 1  1  1     3.2891161563e+01
 1  1  2    -2.1753546184e+01
 1  1  3     1.5268417002e+01
 1  2  1    -2.2073710008e+01
 1  2  2     1.1148567191e+01
 1  2  3    -8.9551054435e+00
 1  3  1     1.5902907594e+01
 1  3  2    -9.2342410251e+00
 1  3  3     4.5708625488e+00
 2  1  1    -2.2073710008e+01
 2  1  2     1.1148567191e+01
 2  1  3    -8.9551054435e+00
 2  2  1     1.0594027181e+01
 2  2  2    -3.3526392430e+00
 2  2  3     4.9279519253e+00
 2  3  1    -9.2342410251e+00
 2  3  2     5.2401245107e+00
 2  3  3    -2.6389887230e+00
 3  1  1     1.5902907594e+01
 3  1  2    -9.2342410251e+00
 3  1  3     4.5708625488e+00
 3  2  1    -9.2342410251e+00
 3  2  2     5.2401245107e+00
 3  2  3    -2.6389887230e+00
 3  3  1     3.7910906319e+00
 3  3  2    -2.1887871969e+00
 3  3  3    -1.0261509078e+00

   13
0.0000000000e+00 0.0000000000e+00 0.0000000000e+00
1.5369952091e+00 2.6621537932e+00 0.0000000000e+00
     1      1      1
 1  1  1    -1.5685908702e-02
 1  1  2     6.3139568282e-02
 1  1  3    -7.9354198238e-03
 1  2  1    -4.5855669305e-01
 1  2  2    -1.8180344735e+00
 1  2  3     1.4561285792e-01
 1  3  1    -1.6249805939e-01
 1  3  2    -1.4220928868e-01
 1  3  3     2.9499534830e-01
 2  1  1    -4.5855669305e-01
 2  1  2    -1.8180344735e+00
 2  1  3     1.4561285792e-01
 2  2  1    -1.8213680412e+00
 2  2  2    -1.5590420315e+00
 2  2  3     1.4719750684e-01
 2  3  1     8.2181124658e-02
 2  3  2     4.2010867023e-02
 2  3  3     6.1730814780e-01
 3  1  1    -1.6249805939e-01
 3  1  2    -1.4220928868e-01
 3  1  3     2.9499534830e-01
 3  2  1     8.2181124658e-02
 3  2  2     4.2010867023e-02
 3  2  3     6.1730814780e-01
 3  3  1     3.0906763065e-01
 3  3  2     7.8949041450e-01
 3  3  3     5.3113311779e-01

   14
0.0000000000e+00 0.0000000000e+00 0.0000000000e+00
1.5369952091e+00 2.6621537932e+00 0.0000000000e+00
     1      1      6
 1  1  1     3.2404943356e-01
 1  1  2     2.5517474831e-01
 1  1  3    -1.8947364136e-01
 1  2  1     5.9765620506e-02
 1  2  2    -4.8030346829e-03
 1  2  3     3.6154549082e-01
 1  3  1     4.7719450636e-01
 1  3  2     6.6488849096e-01
 1  3  3    -1.2841603920e+00
 2  1  1     5.9765620506e-02
 2  1  2    -4.8030346829e-03
 2  1  3     3.6154549082e-01
 2  2  1     3.3365550293e-01
 2  2  2     1.2455137383e-01
 2  2  3    -6.0695041426e-01
 2  3  1     6.6488849096e-01
 2  3  2    -2.9055259212e-01
 2  3  3    -7.4141034800e-01
 3  1  1     4.7719450636e-01
 3  1  2     6.6488849096e-01
 3  1  3    -1.2841603920e+00
 3  2  1     6.6488849096e-01
 3  2  2    -2.9055259212e-01
 3  2  3    -7.4141034800e-01
 3  3  1    -1.6124340169e+00
 3  3  2    -9.3093921370e-01
 3  3  3     4.0621975935e-01

   15
0.0000000000e+00 0.0000000000e+00 0.0000000000e+00
1.5369952091e+00 2.6621537932e+00 0.0000000000e+00
     1      1      7
 1  1  1    -3.2891161563e+01
 1  1  2    -2.1753546184e+01
 1  1  3     1.5268417002e+01
 1  2  1    -2.2073710008e+01
 1  2  2    -1.1148567191e+01
 1  2  3     8.9551054435e+00
 1  3  1     1.5902907594e+01
 1  3  2     9.2342410251e+00
 1  3  3    -4.5708625488e+00
 2  1  1    -2.2073710008e+01
 2  1  2    -1.1148567191e+01
 2  1  3     8.9551054435e+00
 2  2  1    -1.0594027181e+01
 2  2  2    -3.3526392430e+00
 2  2  3     4.9279519253e+00
 2  3  1     9.2342410251e+00
 2  3  2     5.2401245107e+00
 2  3  3    -2.6389887230e+00
 3  1  1     1.5902907594e+01
 3  1  2     9.2342410251e+00
 3  1  3    -4.5708625488e+00
 3  2  1     9.2342410251e+00
 3  2  2     5.2401245107e+00
 3  2  3    -2.6389887230e+00
 3  3  1    -3.7910906319e+00
 3  3  2    -2.1887871969e+00
 3  3  3    -1.0261509078e+00

   16
0.0000000000e+00 0.0000000000e+00 0.0000000000e+00
1.5369952091e+00 -2.6621537932e+00 0.0000000000e+00
     1      1      1
 1  1  1     8.5098135046e-01
 1  1  2     6.3200812030e-01
 1  1  3    -1.7690158902e-02
 1  2  1     8.8996929667e-01
 1  2  2    -1.6814129094e+00
 1  2  3    -1.3998095669e-01
 1  3  1     1.6876592912e-02
 1  3  2    -1.8574312845e-01
 1  3  3     3.8710686381e-01
 2  1  1     8.8996929667e-01
 2  1  2    -1.6814129094e+00
 2  1  3    -1.3998095669e-01
 2  2  1    -1.2279439102e+00
 2  2  2     1.7068785000e+00
 2  2  3     1.5695224592e-01
 2  3  1     3.8647284885e-02
 2  3  2    -1.3736378528e-01
 2  3  3    -5.6412753952e-01
 3  1  1     1.6876592912e-02
 3  1  2    -1.8574312845e-01
 3  1  3     3.8710686381e-01
 3  2  1     3.8647284885e-02
 3  2  2    -1.3736378528e-01
 3  2  3    -5.6412753952e-01
 3  3  1     5.2918493968e-01
 3  3  2    -6.6240562688e-01
 3  3  3     5.3113311779e-01

   17
0.0000000000e+00 0.0000000000e+00 0.0000000000e+00
-1.5369952091e+00 -2.6621537932e+00 0.0000000000e+00
     1      1      1
 1  1  1    -8.5098135046e-01
 1  1  2     6.3200812030e-01
 1  1  3    -1.7690158902e-02
 1  2  1     8.8996929667e-01
 1  2  2     1.6814129094e+00
 1  2  3     1.3998095669e-01
 1  3  1     1.6876592912e-02
 1  3  2     1.8574312845e-01
 1  3  3    -3.8710686381e-01
 2  1  1     8.8996929667e-01
 2  1  2     1.6814129094e+00
 2  1  3     1.3998095669e-01
 2  2  1     1.2279439102e+00
 2  2  2     1.7068785000e+00
 2  2  3     1.5695224592e-01
 2  3  1    -3.8647284885e-02
 2  3  2    -1.3736378528e-01
 2  3  3    -5.6412753952e-01
 3  1  1     1.6876592912e-02
 3  1  2     1.8574312845e-01
 3  1  3    -3.8710686381e-01
 3  2  1    -3.8647284885e-02
 3  2  2    -1.3736378528e-01
 3  2  3    -5.6412753952e-01
 3  3  1    -5.2918493968e-01
 3  3  2    -6.6240562688e-01
 3  3  3     5.3113311779e-01

   18
0.0000000000e+00 0.0000000000e+00 0.0000000000e+00
0.0000000000e+00 0.0000000000e+00 -1.5084685780e+01
     1      1     12
 1  1  1     0.0000000000e+00
 1  1  2    -1.4427372364e-01
 1  1  3     2.8802507605e-01
 1  2  1    -1.4427372364e-01
 1  2  2     0.0000000000e+00
 1  2  3     0.0000000000e+00
 1  3  1     1.6036484749e-02
 1  3  2     0.0000000000e+00
 1  3  3     0.0000000000e+00
 2  1  1    -1.4427372364e-01
 2  1  2     0.0000000000e+00
 2  1  3     0.0000000000e+00
 2  2  1     0.0000000000e+00
 2  2  2     1.4427372364e-01
 2  2  3     2.8802507605e-01
 2  3  1     0.0000000000e+00
 2  3  2     1.6036484749e-02
 2  3  3     0.0000000000e+00
 3  1  1     1.6036484749e-02
 3  1  2     0.0000000000e+00
 3  1  3     0.0000000000e+00
 3  2  1     0.0000000000e+00
 3  2  2     1.6036484749e-02
 3  2  3     0.0000000000e+00
 3  3  1     0.0000000000e+00
 3  3  2     0.0000000000e+00
 3  3  3    -1.0231496810e+00

   19
0.0000000000e+00 0.0000000000e+00 0.0000000000e+00
0.0000000000e+00 0.0000000000e+00 0.0000000000e+00
     1      3      1
 1  1  1     9.5669399854e-01
 1  1  2    -3.5677116974e-02
 1  1  3    -7.7169160344e-01
 1  2  1    -7.8689160049e-02
 1  2  2     2.9406498487e-01
 1  2  3     5.7084186443e-01
 1  3  1    -3.4598325703e-01
 1  3  2     4.6171828243e-01
 1  3  3    -1.1904195889e+00
 2  1  1    -3.5677116974e-02
 2  1  2     3.6856402881e-01
 2  1  3     5.7084186443e-01
 2  2  1     2.9406498487e-01
 2  2  2    -6.8644891879e-01
 2  2  3    -1.1254019525e-01
 2  3  1     4.6171828243e-01
 2  3  2     1.8716309227e-01
 2  3  3     6.8728907010e-01
 3  1  1    -7.7169160344e-01
 3  1  2     5.7084186443e-01
 3  1  3    -1.2281002800e+00
 3  2  1     5.7084186443e-01
 3  2  2    -1.1254019525e-01
 3  2  3     7.0904402726e-01
 3  3  1    -1.1904195889e+00
 3  3  2     6.8728907010e-01
 3  3  3    -1.2989180989e+00

   20
0.0000000000e+00 0.0000000000e+00 0.0000000000e+00
0.0000000000e+00 0.0000000000e+00 0.0000000000e+00
     1      3      3
 1  1  1    -1.9933673421e-01
 1  1  2     3.8466731173e-02
 1  1  3     4.5006876644e-01
 1  2  1     3.8466731173e-02
 1  2  2    -1.8642334118e-01
 1  2  3    -6.7543814868e-01
 1  3  1     4.5006876644e-01
 1  3  2    -6.7543814868e-01
 1  3  3     1.0730255989e+00
 2  1  1     1.4237052191e-01
 2  1  2    -6.4566965170e-03
 2  1  3    -6.7543814868e-01
 2  2  1    -6.4566965170e-03
 2  2  2     8.0348161456e-02
 2  2  3    -3.2986002748e-01
 2  3  1    -6.7543814868e-01
 2  3  2    -3.2986002748e-01
 2  3  3    -6.1951161837e-01
 3  1  1    -8.6756171277e-02
 3  1  2    -4.9229465115e-01
 3  1  3     1.3720602096e+00
 3  2  1    -4.9229465115e-01
 3  2  2    -6.5520907000e-01
 3  2  3    -7.9215933135e-01
 3  3  1     1.3720602096e+00
 3  3  2    -7.9215933135e-01
 3  3  3     7.0609253975e-01

   21
0.0000000000e+00 0.0000000000e+00 0.0000000000e+00
0.0000000000e+00 0.0000000000e+00 0.0000000000e+00
     1      3      9
 1  1  1    -2.9870247582e-01
 1  1  2    -2.6728077847e-01
 1  1  3     7.3087299357e-01
 1  2  1    -3.8164056285e-01
 1  2  2    -1.1594998500e-01
 1  2  3    -1.1913326550e-01
 1  3  1     2.2187050085e-01
 1  3  2     1.5681217424e-01
 1  3  3     1.9284779168e-01
 2  1  1    -3.1027301549e-01
 2  1  2     7.6622330436e-03
 2  1  3    -1.1913326550e-01
 2  2  1    -1.9041472386e-01
 2  2  2     5.4967272536e-01
 2  2  3     5.9330974777e-01
 2  3  1     1.5681217424e-01
 2  3  2     4.0294160287e-01
 2  3  3    -1.1134072444e-01
 3  1  1     8.3386520724e-01
 3  1  2    -2.2520653682e-01
 3  1  3    -1.8267893684e-01
 3  2  1    -2.2520653682e-01
 3  2  2     5.7381909794e-01
 3  2  3     1.0546973336e-01
 3  3  1    -1.6572584479e-01
 3  3  2     9.5681861101e-02
 3  3  3    -3.1175533169e-01

   22
0.0000000000e+00 0.0000000000e+00 0.0000000000e+00
3.0739904182e+00 0.0000000000e+00 0.0000000000e+00
     1      3      1
 1  1  1     0.0000000000e+00
 1  1  2     2.3500702665e-02
 1  1  3    -8.3684409980e-02
 1  2  1     5.3983399645e-02
 1  2  2    -1.9138909016e-02
 1  2  3     4.7481917471e-02
 1  3  1    -1.1416709366e-01
 1  3  2    -6.2858518129e-02
 1  3  3     1.4045085766e-02
 2  1  1     2.3500702665e-02
 2  1  2     0.0000000000e+00
 2  1  3    -3.4762116269e-02
 2  2  1     1.9138909016e-02
 2  2  2     5.7883322843e-03
 2  2  3     2.4038029053e-02
 2  3  1     6.2858518129e-02
 2  3  2     4.1494289396e-02
 2  3  3    -3.1387836755e-02
 3  1  1    -8.3684409980e-02
 3  1  2     3.4762116269e-02
 3  1  3     0.0000000000e+00
 3  2  1    -4.7481917471e-02
 3  2  2     2.4038029053e-02
 3  2  3    -4.8063941605e-02
 3  3  1    -1.4045085766e-02
 3  3  2    -3.1387836755e-02
 3  3  3     1.3434608327e-01

   23
0.0000000000e+00 0.0000000000e+00 0.0000000000e+00
-3.0739904182e+00 0.0000000000e+00 0.0000000000e+00
     1      3      3
 1  1  1     0.0000000000e+00
 1  1  2     3.5162968510e-01
 1  1  3    -2.0088719839e-01
 1  2  1     3.5162968510e-01
 1  2  2     0.0000000000e+00
 1  2  3    -3.6808974358e-02
 1  3  1    -2.0088719839e-01
 1  3  2     3.6808974358e-02
 1  3  3     0.0000000000e+00
 2  1  1     3.7948369680e-02
 2  1  2    -7.2493137136e-02
 2  1  3     1.5549630285e-01
 2  2  1     7.2493137136e-02
 2  2  2     4.1965405373e-01
 2  2  3    -1.9551046113e-02
 2  3  1    -1.5549630285e-01
 2  3  2    -1.9551046113e-02
 2  3  3     1.4283600819e-01
 3  1  1    -4.2042691347e-02
 3  1  2    -2.7980564838e-01
 3  1  3     6.3789571074e-03
 3  2  1     2.7980564838e-01
 3  2  2     2.1095512538e-01
 3  2  3     1.4396327325e-02
 3  3  1    -6.3789571074e-03
 3  3  2     1.4396327325e-02
 3  3  3     3.1794066131e-01

   24
0.0000000000e+00 0.0000000000e+00 0.0000000000e+00
-1.5369952091e+00 2.6621537932e+00 0.0000000000e+00
     1      3      3
 1  1  1    -4.3304948656e-01
 1  1  2    -1.1801310860e-01
 1  1  3    -1.1627820497e-01
 1  2  1     7.5486881168e-03
 1  2  2     3.6754163048e-02
 1  2  3     2.0434532798e-01
 1  3  1    -1.3491963390e-02
 1  3  2    -4.7303613482e-02
 1  3  3    -1.2369961167e-01
 2  1  1     1.0160844747e-01
 2  1  2    -2.7114839337e-01
 2  1  3     1.2040050766e-02
 2  2  1    -1.9865525623e-01
 2  2  2    -3.3040965917e-01
 2  2  3    -1.0416003953e-01
 2  3  1     1.4500166373e-01
 2  3  2    -2.0694628111e-01
 2  3  3    -7.1418004096e-02
 3  1  1     1.4770567120e-01
 3  1  2     3.8935691657e-01
 3  1  3    -9.2781066311e-03
 3  2  1    -1.7025438018e-01
 3  2  2     2.1206762836e-02
 3  2  3    -1.2722502567e-02
 3  3  1    -1.5657063738e-02
 3  3  2    -1.6738247579e-03
 3  3  3     3.1794066131e-01

   25
0.0000000000e+00 0.0000000000e+00 0.0000000000e+00
1.5369952091e+00 -2.6621537932e+00 0.0000000000e+00
     1      3      1
 1  1  1    -2.5623483729e-02
 1  1  2     7.3735445182e-03
 1  1  3    -8.4004161913e-03
 1  2  1     8.7069774362e-03
 1  2  2    -9.3110190971e-03
 1  2  3     8.7031178103e-03
 1  3  1     2.5789436307e-03
 1  3  2     1.3026187419e-01
 1  3  3     3.4205206882e-02
 2  1  1     4.0523107335e-02
 2  1  2    -2.6140354551e-02
 2  1  3     9.0947151550e-02
 2  2  1     9.8278899187e-03
 2  2  2    -3.8592843401e-02
 2  2  3    -5.1245964736e-02
 2  3  1     4.5448379296e-03
 2  3  2    -7.5251747899e-02
 2  3  3     3.5305173059e-03
 3  1  1     2.6152547801e-03
 3  1  2     2.3432172097e-03
 3  1  3     4.1624594436e-02
 3  2  1     8.4587250949e-02
 3  2  2    -6.2261635708e-02
 3  2  3     2.4031970802e-02
 3  3  1     2.0160121117e-02
 3  3  2     2.7857319449e-02
 3  3  3     1.3434608327e-01

   26
0.0000000000e+00 0.0000000000e+00 0.0000000000e+00
0.0000000000e+00 0.0000000000e+00 0.0000000000e+00
     1      6      1
 1  1  1     0.0000000000e+00
 1  1  2     6.8084720607e-02
 1  1  3    -6.7442614136e-01
 1  2  1    -3.2273353499e-01
 1  2  2     0.0000000000e+00
 1  2  3     0.0000000000e+00
 1  3  1    -8.1568880071e-01
 1  3  2     0.0000000000e+00
 1  3  3     0.0000000000e+00
 2  1  1     6.8084720607e-02
 2  1  2     0.0000000000e+00
 2  1  3     0.0000000000e+00
 2  2  1     0.0000000000e+00
 2  2  2    -4.3671870927e-01
 2  2  3     8.6106805560e-01
 2  3  1     0.0000000000e+00
 2  3  2     1.9264745090e-02
 2  3  3     1.4828206960e+00
 3  1  1    -6.7442614136e-01
 3  1  2     0.0000000000e+00
 3  1  3     0.0000000000e+00
 3  2  1     0.0000000000e+00
 3  2  2     8.6106805560e-01
 3  2  3     1.8618784274e+00
 3  3  1     0.0000000000e+00
 3  3  2     1.4828206960e+00
 3  3  3     4.0621975935e-01

   27
0.0000000000e+00 0.0000000000e+00 0.0000000000e+00
0.0000000000e+00 0.0000000000e+00 0.0000000000e+00
     1      6      6
 1  1  1     0.0000000000e+00
 1  1  2     6.8740761913e-01
 1  1  3     2.2699566791e-01
 1  2  1     6.8740761913e-01
 1  2  2     0.0000000000e+00
 1  2  3     0.0000000000e+00
 1  3  1     2.2699566791e-01
 1  3  2     0.0000000000e+00
 1  3  3     0.0000000000e+00
 2  1  1     6.9293959324e-01
 2  1  2     0.0000000000e+00
 2  1  3     0.0000000000e+00
 2  2  1     0.0000000000e+00
 2  2  2     7.7688649930e-01
 2  2  3    -9.9075678620e-01
 2  3  1     0.0000000000e+00
 2  3  2    -9.9075678620e-01
 2  3  3    -1.5818660591e+00
 3  1  1     2.9761454276e-01
 3  1  2     0.0000000000e+00
 3  1  3     0.0000000000e+00
 3  2  1     0.0000000000e+00
 3  2  2    -9.9364509446e-01
 3  2  3    -1.3683207553e+00
 3  3  1     0.0000000000e+00
 3  3  2    -1.3683207553e+00
 3  3  3    -1.3992248371e+00

   28
0.0000000000e+00 0.0000000000e+00 0.0000000000e+00
0.0000000000e+00 0.0000000000e+00 0.0000000000e+00
     1      6      7
 1  1  1     0.0000000000e+00
 1  1  2    -4.8566546410e-01
 1  1  3     3.5927258944e-01
 1  2  1    -3.1856815775e-01
 1  2  2     0.0000000000e+00
 1  2  3     0.0000000000e+00
 1  3  1     3.0616826164e-01
 1  3  2     0.0000000000e+00
 1  3  3     0.0000000000e+00
 2  1  1    -4.3655784530e-01
 2  1  2     0.0000000000e+00
 2  1  3     0.0000000000e+00
 2  2  1     0.0000000000e+00
 2  2  2     1.2691506052e-01
 2  2  3     4.5512264973e-01
 2  3  1     0.0000000000e+00
 2  3  2     9.8970323762e-01
 2  3  3    -1.2360023969e-01
 3  1  1     5.7435734090e-01
 3  1  2     0.0000000000e+00
 3  1  3     0.0000000000e+00
 3  2  1     0.0000000000e+00
 3  2  2     3.6977705037e-01
 3  2  3    -1.8235688729e-01
 3  3  1     0.0000000000e+00
 3  3  2    -2.8116060252e-02
 3  3  3    -3.0399739487e-01

   29
0.0000000000e+00 0.0000000000e+00 0.0000000000e+00
-1.5369952091e+00 2.6621537932e+00 0.0000000000e+00
     1      6      6
 1  1  1     6.8950468831e-03
 1  1  2     2.6341731522e-02
 1  1  3    -3.6109443965e-03
 1  2  1     3.4097999485e-03
 1  2  2    -3.3070051508e-02
 1  2  3     2.8185994073e-02
 1  3  1    -1.3118083142e-02
 1  3  2     4.6655238767e-02
 1  3  3     2.1650133944e-02
 2  1  1    -1.5754167562e-02
 2  1  2     2.6602427629e-02
 2  1  3     4.1166289653e-02
 2  2  1     1.3362670762e-02
 2  2  2     6.4202159591e-04
 2  2  3    -5.6327689068e-02
 2  3  1     3.3674943186e-02
 2  3  2    -4.6820550323e-02
 2  3  3     1.2499710660e-02
 3  1  1    -1.2573622157e-02
 3  1  2     6.4088612222e-03
 3  1  3    -1.0284521770e-02
 3  2  1     4.1342625669e-02
 3  2  2    -4.0142955967e-02
 3  2  3    -6.9420933775e-02
 3  3  1    -6.5262553089e-02
 3  3  2     2.5803809769e-02
 3  3  3     1.8006784413e-01

   30
0.0000000000e+00 0.0000000000e+00 0.0000000000e+00
1.5369952091e+00 2.6621537932e+00 0.0000000000e+00
     1      6      6
 1  1  1    -6.8950468831e-03
 1  1  2     2.6341731522e-02
 1  1  3    -3.6109443965e-03
 1  2  1     3.4097999485e-03
 1  2  2     3.3070051508e-02
 1  2  3    -2.8185994073e-02
 1  3  1    -1.3118083142e-02
 1  3  2    -4.6655238767e-02
 1  3  3    -2.1650133944e-02
 2  1  1    -1.5754167562e-02
 2  1  2    -2.6602427629e-02
 2  1  3    -4.1166289653e-02
 2  2  1    -1.3362670762e-02
 2  2  2     6.4202159591e-04
 2  2  3    -5.6327689068e-02
 2  3  1    -3.3674943186e-02
 2  3  2    -4.6820550323e-02
 2  3  3     1.2499710660e-02
 3  1  1    -1.2573622157e-02
 3  1  2    -6.4088612222e-03
 3  1  3     1.0284521770e-02
 3  2  1    -4.1342625669e-02
 3  2  2    -4.0142955967e-02
 3  2  3    -6.9420933775e-02
 3  3  1     6.5262553089e-02
 3  3  2     2.5803809769e-02
 3  3  3     1.8006784413e-01

   31
0.0000000000e+00 0.0000000000e+00 0.0000000000e+00
1.5369952091e+00 -2.6621537932e+00 0.0000000000e+00
     1      6      1
 1  1  1    -3.3421331667e-01
 1  1  2    -1.4630585660e-01
 1  1  3     4.1858624247e-02
 1  2  1     2.4020779143e-03
 1  2  2    -1.9726100492e-01
 1  2  3     2.0159294137e-01
 1  3  1     1.5115282174e-01
 1  3  2    -2.7888286374e-02
 1  3  3    -2.2321259582e-02
 2  1  1    -1.9981367462e-01
 2  1  2     9.1201446290e-02
 2  1  3    -8.7096539604e-02
 2  2  1    -2.2815375805e-01
 2  2  2    -1.4270504670e-01
 2  2  3    -2.2390644885e-01
 2  3  1     5.2817023707e-01
 2  3  2    -1.3768509717e-01
 2  3  3     4.1548777336e-02
 3  1  1    -1.0788678429e-01
 3  1  2     2.8804849330e-01
 3  1  3    -1.4648589733e-01
 3  2  1    -6.4098767225e-04
 3  2  2    -7.4161040313e-02
 3  2  3    -8.4573672258e-02
 3  3  1     2.4821666878e-02
 3  3  2    -4.0105166511e-02
 3  3  3     2.8336455386e-01

   32
0.0000000000e+00 0.0000000000e+00 0.0000000000e+00
-1.5369952091e+00 -2.6621537932e+00 0.0000000000e+00
     1      6      1
 1  1  1     3.3421331667e-01
 1  1  2    -1.4630585660e-01
 1  1  3     4.1858624247e-02
 1  2  1     2.4020779143e-03
 1  2  2     1.9726100492e-01
 1  2  3    -2.0159294137e-01
 1  3  1     1.5115282174e-01
 1  3  2     2.7888286374e-02
 1  3  3     2.2321259582e-02
 2  1  1    -1.9981367462e-01
 2  1  2    -9.1201446290e-02
 2  1  3     8.7096539604e-02
 2  2  1     2.2815375805e-01
 2  2  2    -1.4270504670e-01
 2  2  3    -2.2390644885e-01
 2  3  1    -5.2817023707e-01
 2  3  2    -1.3768509717e-01
 2  3  3     4.1548777336e-02
 3  1  1    -1.0788678429e-01
 3  1  2    -2.8804849330e-01
 3  1  3     1.4648589733e-01
 3  2  1     6.4098767225e-04
 3  2  2    -7.4161040313e-02